################################################################################
# Symmetry function scaling data.
################################################################################
# Col  Name     Description
################################################################################
# 1    e_index  Element index.
# 2    sf_index Symmetry function index.
# 3    sf_min   Symmetry function minimum.
# 4    sf_max   Symmetry function maximum.
# 5    sf_mean  Symmetry function mean.
# 6    sf_sigma Symmetry function sigma.
#########################################################################################################################
#        1          2                        3                        4                        5                        6
#  e_index   sf_index                   sf_min                   sf_max                  sf_mean                 sf_sigma
#########################################################################################################################
         1          1   1.0412385763375238E-02   2.8890689551868320E-01   8.0933607579263295E-02   5.3812612285648168E-02
         1          2   6.9802155825616580E-02   5.7992468082364856E-01   2.4341682308330972E-01   1.3557779220676716E-01
         1          3   1.1384112622113815E-03   1.6380202464297011E-01   4.0351595131897788E-02   3.6873464434147310E-02
         1          4   0.0000000000000000E+00   5.7285506080764520E-02   1.3881025824336094E-02   1.1596765990358844E-02
         1          5   1.8953177631421000E-02   1.3864768310678269E-01   6.2950057327147910E-02   2.5459326024988536E-02
         1          6   1.6057566773690196E-01   1.2820259358618493E+00   4.8657161083295675E-01   2.7014612141841526E-01
         1          7   2.1268168815843824E-03   3.0713379718225925E-01   7.3046573135012421E-02   6.7889844324680718E-02
         1          8   4.0135434361643893E-02   2.8716612696546157E-01   1.2083867797348105E-01   4.9593421036887318E-02
         1          9   1.0748585069537225E-02   6.4228636952931495E-01   2.1065522087186189E-01   1.0726777058006291E-01
         1         10   1.6112678888409825E-05   4.8786686688301006E-01   8.2574233665724431E-02   8.2242214872959310E-02
         1         11   0.0000000000000000E+00   1.4002772715984443E-01   5.4752367956702928E-02   4.7598796259097215E-02
         1         12   3.4285752740243680E-03   4.6465610688740294E-01   1.3312746442449450E-01   7.2137482617226883E-02
         1         13   5.9171848739760574E-05   8.4149763893039342E-01   3.3413966537311068E-01   2.0414416282754835E-01
         1         14   1.0750556903647401E-01   1.6284329849431718E+00   6.1027867838970007E-01   2.7489435165174431E-01
         1         15   1.2845547281514254E-10   6.0613815515005653E-01   9.5633428370587692E-02   9.0649573176286399E-02
         1         16   0.0000000000000000E+00   1.9079180671216076E-01   5.6535216539658956E-02   7.2941778599579038E-02
         1         17   3.4005859669835901E-06   3.8132365193487983E-01   8.1961204753914052E-02   7.8177362777826415E-02
         1         18   2.8937000096693966E-10   9.4661400277968766E-01   3.7363126794370205E-01   2.3315356785025002E-01
         1         19   2.0489163525328588E-01   9.6135328803645592E-01   5.0271456454834496E-01   1.9410642429025865E-01
         1         20   2.7999852625885461E-21   3.6885631243965300E-01   8.5880762155669116E-02   1.0054393282562686E-01
         1         21   0.0000000000000000E+00   2.4341288454915416E-01   3.8111113564550436E-02   7.1923259453364169E-02
         1         22   8.6112606902578066E-13   2.1770229361056978E-01   2.6543625125468030E-02   4.7661895055070180E-02
         1         23   3.5020538562150441E-21   7.8797955291132027E-01   2.6123324847590040E-01   2.3071711715050819E-01
         1         24   1.0694670873289708E-01   5.1978531234531600E-01   2.4090607835385527E-01   7.1622254631347013E-02
         1         25   1.1227977334466458E-41   2.5615697268746712E-01   2.7485992401070324E-02   4.9102778486143701E-02
         1         26   5.5316890620277213E-26   4.4726956368188645E-02   1.1355272823788884E-03   3.0585184280201572E-03
         1         27   3.9368701988344460E-42   4.1757007424477427E-01   6.0210823102496903E-02   6.7707492845046596E-02
         1         28   1.6038440494449249E-01   3.1821900112285595E-01   2.5407945133784349E-01   1.8867573112975752E-02
         1         29   2.9546176960343452E-79   4.6374421209683797E-02   7.5305149881968751E-04   2.0427661279409930E-03
         1         30   0.0000000000000000E+00   2.9961773552049801E-03   1.9472972070293602E-05   8.9262661512265769E-05
         1         31   1.8459601263591893E-01   3.4933152095729741E-01   3.1179878286415952E-01   2.1232846583720412E-02
         1         32   1.6891083424646753E-06   1.3559718108462873E-03   2.1014950037186059E-04   2.0746588356141852E-04
         1         33   2.3743927326351540E-04   8.5510290270016508E-03   1.6586390113054513E-03   1.4696194245338737E-03
         1         34   6.4932129608251915E-07   1.7699602598524441E-03   2.6669065856985700E-04   2.8051393992001625E-04
         1         35   3.3028154461764725E-05   1.2980048090804773E-02   2.1748155292164242E-03   2.3186473701721231E-03
         1         36   4.9606487075923693E-06   5.2840560485508635E-03   6.6316381169961316E-04   9.7057043817761629E-04
         1         37   8.5805053491986471E-05   5.0596934285613406E-03   1.0704071949341799E-03   9.4033353899419824E-04
         1         38   0.0000000000000000E+00   6.0688619543407783E-04   4.2125497652442137E-05   9.6500878595703231E-05
         1         39   8.4703012694440046E-07   1.0068391041252892E-03   1.2398426119756393E-04   1.7455708686786001E-04
         1         40   0.0000000000000000E+00   4.7065083332087089E-04   1.2288228857534208E-04   9.7815924929895286E-05
         1         41   1.9991331575642982E-05   2.7745155643989481E-03   5.5201445382164517E-04   4.9622991407823730E-04
         1         42   1.2584221723636766E-03   1.8515485947260140E-02   4.5286878223275455E-03   3.7077013439227769E-03
         1         43   0.0000000000000000E+00   1.4748600853899336E-03   4.0244190214591815E-04   3.1383998505955519E-04
         1         44   1.5403434618016087E-04   3.7919752877151247E-03   1.1299764576618151E-03   7.2196304253768491E-04
         1         45   6.7691242351511122E-04   2.9970935599474793E-02   6.8343460272267589E-03   6.4482293126530230E-03
         1         46   1.0615921366210104E-04   1.3252149433471061E-02   2.2954178172800883E-03   2.7829311424644211E-03
         1         47   0.0000000000000000E+00   4.7108563040807140E-03   7.5455496999207088E-04   6.9469286652140856E-04
         1         48   6.9954775034651400E-04   1.2060371506914797E-02   3.3514097643738494E-03   2.4454683617705685E-03
         1         49   0.0000000000000000E+00   1.3303765845961621E-03   1.3648303117770491E-04   2.3631086620266853E-04
         1         50   4.2776365527407887E-05   2.3680866181456910E-03   5.2597939132244980E-04   4.5500550105333535E-04
         1         51   1.9855321470513343E-10   4.1673544647629756E-04   2.5035069622978942E-05   4.5870151436612598E-05
         1         52   6.3295964159294368E-08   1.4147265900098067E-03   1.4967124273106050E-04   1.9300196687623307E-04
         1         53   7.5674899756066060E-11   2.7044904707152498E-04   9.5339455708210225E-06   2.3876235890107774E-05
         1         54   0.0000000000000000E+00   1.3066144485398485E-04   1.1527163157224691E-05   1.6786217075578390E-05
         1         55   3.9185993897665657E-08   3.4319147540230478E-04   3.5153306006061555E-05   4.6903172509969066E-05
         1         56   3.1959707375272448E-11   9.7153096137229911E-04   1.2081913957155749E-04   1.3095268259991248E-04
         1         57   1.1900700930829153E-08   4.3267196391877540E-04   5.0781850888659893E-05   6.7775722291908109E-05
         1         58   0.0000000000000000E+00   1.1451923284005451E-04   7.9680177670675081E-06   2.3390602743492932E-05
         1         59   3.1058867987806010E-06   1.2742418299871048E-03   2.3892259814162540E-04   2.3378854924459083E-04
         1         60   3.5443075019186282E-04   7.1346065525386068E-03   1.8459053984523845E-03   1.4188729084589873E-03
         1         61   1.3621308513383408E-06   1.3104576828206307E-03   2.7045271729398790E-04   2.6162682775608253E-04
         1         62   0.0000000000000000E+00   8.0370451610812133E-04   1.7437337709632741E-04   1.3636038386777668E-04
         1         63   3.7804455653874426E-05   1.2235441642730813E-03   3.5566105159003417E-04   2.2881042875544399E-04
         1         64   4.5539688018813294E-04   1.0298957768047248E-02   3.0436124912857753E-03   2.4456937797900941E-03
         1         65   5.0145796058772024E-05   4.8251363934963820E-03   1.0078818523919463E-03   1.0323731093121169E-03
         1         66   0.0000000000000000E+00   1.6091385170486751E-03   3.3459135295484772E-04   2.5119144052961469E-04
         1         67   0.0000000000000000E+00   5.2791741592148533E-04   6.0522988828773523E-05   8.7562252052553497E-05
         1         68   0.0000000000000000E+00   3.1148928996563936E-04   6.8224576449907274E-05   6.0238174146401714E-05
         1         69   3.6789587238471286E-05   1.0039695500009709E-03   2.7031148769256588E-04   1.8127877524793621E-04
         1         70   0.0000000000000000E+00   2.6292865080940133E-04   7.2720438946026941E-05   5.6916363139399114E-05
         1         71   3.8010889017771694E-08   4.3689351127914607E-04   1.2192208606817863E-04   8.7402727242664053E-05
         1         72   7.1174687752186352E-04   3.9267616171838139E-02   7.8083103474119757E-03   5.3646966587713113E-03
         1         73   8.1324010910486535E-09   5.2166246574032364E-03   1.2258562355402327E-03   9.3802801050447049E-04
         1         74   0.0000000000000000E+00   5.9456380834073943E-03   1.2294827490724209E-03   1.3438259386599572E-03
         1         75   1.7472454385692926E-04   6.9002628389100665E-02   9.4932412703893840E-03   9.0789219499084091E-03
         1         76   3.0342487164776912E-06   2.7133393933271042E-02   2.0887955849398219E-03   3.6388828861241610E-03
         1         77   0.0000000000000000E+00   8.5652183396052375E-03   1.3502117409067537E-03   1.5484529197901710E-03
         1         78   0.0000000000000000E+00   3.1464092156680136E-03   2.4569281492956008E-04   4.1994715425456842E-04
         1         79   6.5095085457230842E-07   4.7964668897615007E-03   4.9434776861899258E-04   7.1839607099591753E-04
         1         80   7.7076471467967925E-07   1.2856120565527214E-02   3.1926294301014482E-03   2.4103718596063259E-03
         1         81   5.3372040233792481E-03   9.5603626405682957E-02   1.9997850311379708E-02   1.2538259669947271E-02
         1         82   4.1632134564856383E-08   1.1401816748051007E-02   3.2521309764228699E-03   2.0683728311905467E-03
         1         83   0.0000000000000000E+00   1.0100203237378206E-02   2.7942609260074381E-03   2.3588787128227709E-03
         1         84   3.4081702785753458E-03   1.6346225272461021E-01   3.2027354591418401E-02   2.7018696169905248E-02
         1         85   1.8601917292506157E-05   5.6264502367362766E-02   7.7557860486134316E-03   9.3185962915485702E-03
         1         86   0.0000000000000000E+00   1.9998933639517050E-02   3.9695960812525626E-03   3.3964728743298631E-03
         1         87   1.2134982564382777E-03   5.2487368501490890E-02   1.3045776657587129E-02   8.6245357128300476E-03
         1         88   2.4916642727812463E-05   1.2618083596009010E-02   2.4638862428810839E-03   2.1963436214653838E-03
         1         89   0.0000000000000000E+00   5.3629570952382407E-03   8.9570932953326934E-04   8.6594196595435032E-04
         1         90   1.1177626867922646E-09   8.2812283345614201E-03   8.6850720170630630E-04   1.0111809146375337E-03
         1         91   5.3212253385865002E-12   1.6317052227435285E-03   1.2905862510976135E-04   2.6373185182137587E-04
         1         92   4.6311615232363080E-07   5.1673600500487700E-03   6.1596354613588822E-04   6.9730087731246560E-04
         1         93   9.4779405799048077E-13   1.2784385294819804E-03   3.7436838982782009E-05   8.2434304936305445E-05
         1         94   0.0000000000000000E+00   1.0574740325559066E-03   8.3093379753743790E-05   1.5346589725519363E-04
         1         95   2.3183807239362312E-08   1.8173979157316063E-03   1.6931437316275008E-04   2.5231695953107768E-04
         1         96   1.2235676420808827E-10   3.8482851699825670E-03   4.3172574974727863E-04   4.3890413423078182E-04
         1         97   1.1939944576858992E-08   1.8310960829171774E-03   1.7804990331395416E-04   2.7631220040536599E-04
         1         98   0.0000000000000000E+00   7.7345340549385877E-04   5.4368683185881868E-05   1.6321234440754782E-04
         1         99   0.0000000000000000E+00   2.7340707114031969E-04   1.1629450995954525E-05   1.9348889759173862E-05
         1        100   2.6580898806651310E-17   1.7780183657714889E-04   2.1281425111150514E-06   7.9299171849385953E-06
         1        101   1.2463728853154138E-07   7.0907238091742842E-03   1.3197672955782653E-03   1.0786033263578796E-03
         1        102   2.0956360889869195E-03   3.2973382027842321E-02   7.4868129244685094E-03   4.7919751141996631E-03
         1        103   1.7059738312862926E-08   5.0611014236026626E-03   1.1445926297133022E-03   8.7655251388570065E-04
         1        104   0.0000000000000000E+00   3.5458511100253400E-03   9.9669191612200255E-04   7.7664445572465078E-04
         1        105   2.0495275608877035E-05   4.8886171621806297E-03   1.2659307051119306E-03   9.0945545192356561E-04
         1        106   9.4479420900041926E-06   1.9519087772769977E-02   3.8023679045484124E-03   3.4591513347772915E-03
         1        107   0.0000000000000000E+00   6.3564882523982971E-03   1.6444852959455077E-03   1.2052358949188977E-03
         1        108   8.0374282669995391E-04   1.8092691894142525E-02   5.2498449771318624E-03   2.8229789536174787E-03
         1        109   2.1687942424751212E-05   5.3463954196319363E-03   1.2883354086388494E-03   9.4097922022522281E-04
         1        110   0.0000000000000000E+00   1.3158164325666685E-03   2.0107998588184952E-04   1.9000459116777924E-04
         1        111   8.5070609958827266E-10   2.1967261679673019E-03   3.6253806798927434E-04   3.5007383023737549E-04
         2          1   1.8561776861459958E-02   2.9060846608411156E-01   1.2170841154165532E-01   6.0685338751663605E-02
         2          2   6.7182634485384515E-02   5.5704967238766256E-01   2.7150635471382817E-01   1.1871461085121654E-01
         2          3   4.8325037763522903E-04   1.4111164356792480E-01   4.2581492970533805E-02   3.2304683230885839E-02
         2          4   0.0000000000000000E+00   6.2757233854012648E-02   1.2347094077713989E-02   1.4363801175132527E-02
         2          5   1.3965742523345298E-03   1.6880850089370186E-01   6.2476665087746297E-02   3.4340038100144368E-02
         2          6   2.2812319034371531E-02   6.1851184964859551E-01   2.4328580541647815E-01   1.2299332591918051E-01
         2          7   1.4768664239025672E-01   1.1436919126172682E+00   5.4429475226452495E-01   2.2984493247386625E-01
         2          8   0.0000000000000000E+00   1.4885897547397700E-01   2.4922400668663938E-02   2.9887313742936641E-02
         2          9   4.2094033326673325E-03   3.2832436398847470E-01   1.2465232686928079E-01   6.8986254344888781E-02
         2         10   5.4812091460013410E-02   9.4397579026866862E-01   3.1268074440409455E-01   1.6487158861005077E-01
         2         11   2.5101535629327543E-01   1.6241254269740875E+00   7.3015252272798725E-01   2.5111659013610799E-01
         2         12   0.0000000000000000E+00   1.9323693492323069E-01   3.5614619369988339E-02   4.8660851066265991E-02
         2         13   2.5562047033091759E-02   9.3311921569453427E-01   3.0513933919485098E-01   1.4047995116918305E-01
         2         14   9.1970445617980396E-15   4.9104830041568165E-01   8.9951887226845967E-02   9.8769285761138192E-02
         2         15   0.0000000000000000E+00   1.9358137365265851E-01   3.6914725343483328E-02   6.5115790883421190E-02
         2         16   1.1402213487172789E-03   3.9295670353162787E-01   1.2890798530265676E-01   8.2024712245731102E-02
         2         17   1.1674088462993906E-03   8.2379429040806551E-01   2.5135728227417203E-01   1.8049976655812539E-01
         2         18   9.6024897245167745E-02   1.2854730979595064E+00   7.6465815946264404E-01   2.3531641932986158E-01
         2         19   1.5252277502100775E-28   3.2697250528866684E-01   8.1051323490826707E-02   9.9925761829172913E-02
         2         20   0.0000000000000000E+00   2.3161964882448507E-01   1.8915816714098862E-02   4.5966123955316303E-02
         2         21   1.3062853858447808E-07   4.2469928828820364E-01   9.3469264440700320E-02   9.4705433162365141E-02
         2         22   5.0153911361721570E-08   6.7818245783976761E-01   1.2045303917692753E-01   1.2798092797782251E-01
         2         23   5.3147212674082824E-02   1.0843054940500598E+00   5.6151065241641629E-01   2.0583415675627950E-01
         2         24   1.5494323775149610E-54   3.3332113636631616E-01   6.5353624884833483E-02   1.0328296097819743E-01
         2         25   0.0000000000000000E+00   1.8962370368128975E-01   8.7286462426891549E-03   3.1933743271761607E-02
         2         26   5.0241250324126671E-16   5.7063993260994639E-01   7.1529136027747034E-02   1.4478655736136314E-01
         2         27   7.6336736868165114E-05   9.5192267091377714E-01   5.3866968494458978E-01   2.2675123193945651E-01
         2         28  6.1765473743714004E-102   3.2231270978084281E-01   7.2523482388986787E-02   1.2615546782539974E-01
         2         29   0.0000000000000000E+00   3.2197389436786078E-01   1.5828929775815882E-02   6.8990421485595893E-02
         2         30   1.5936281321520013E-32   2.1482008004118716E-01   1.8808485203524971E-02   3.9441915070082587E-02
         2         31   3.9378394990502107E-11   2.9962723310331368E-01   8.7132083808502264E-02   5.2783890145477005E-02
         2         32  2.0208639852833319E-186   1.6534016418291095E-01   1.4678066957961363E-02   2.8188534112568810E-02
         2         33   2.5810789164545989E-63   4.5808560523279999E-03   1.6685095020965989E-04   3.9294681019805451E-04
         2         34   3.5472662579597642E-05   2.3436289326106531E-03   4.3799758772194731E-04   3.6964970417200629E-04
         2         35   4.7267736273332858E-04   9.1042685761758418E-03   2.6122356543232415E-03   1.8742001800159177E-03
         2         36   7.2545035798016588E-07   2.1764593897864387E-03   5.0073464005690545E-04   5.0151331636929337E-04
         2         37   0.0000000000000000E+00   8.2965718675761645E-04   1.3382814279704365E-04   1.7238713995104972E-04
         2         38   1.3116910879553626E-04   2.7375822257601442E-03   7.0245942018694297E-04   4.8998567787450150E-04
         2         39   6.3044479876182575E-05   1.0973857137571765E-02   2.7269675043868555E-03   2.2618287630741703E-03
         2         40   0.0000000000000000E+00   2.1692552720097283E-03   2.6604044322899289E-04   3.7302440494695592E-04
         2         41   2.0832746486402156E-04   4.9329791340618455E-03   1.4645957150935304E-03   1.1151909373476284E-03
         2         42   0.0000000000000000E+00   6.5096271523073959E-04   6.7434319374501622E-05   1.2372268667421935E-04
         2         43   2.0905351903799997E-09   1.1618646423284672E-03   1.8154638895590070E-04   2.3392233659520585E-04
         2         44   0.0000000000000000E+00   6.6622222758911753E-04   9.8374205195263996E-05   1.1508390668074716E-04
         2         45   0.0000000000000000E+00   5.7735407448100380E-04   1.0221869371210329E-04   1.1787043197521841E-04
         2         46   3.9682138133295916E-05   5.4111164388527325E-03   1.1088341206863031E-03   1.0193302941250203E-03
         2         47   9.1500414898088912E-04   2.2788749289665303E-02   6.3969259021199433E-03   4.7325224938923900E-03
         2         48   3.3693869970867188E-06   4.4838544272958877E-03   9.7855617443294964E-04   1.0142370996162149E-03
         2         49   0.0000000000000000E+00   2.3989361976933595E-03   3.6603284811668904E-04   4.8974307537629467E-04
         2         50   1.5598774501191588E-04   5.0030044594972529E-03   1.5084490594670765E-03   1.0966659206973180E-03
         2         51   6.9207726693541391E-04   2.4145276025139436E-02   7.0290964922163643E-03   5.8096221634250482E-03
         2         52   1.7675323607349372E-05   1.3170928803314719E-02   2.6470467332492258E-03   3.0898785878578938E-03
         2         53   0.0000000000000000E+00   4.9408505006803835E-03   6.8115023207658120E-04   8.8347427628335197E-04
         2         54   3.8205794224598896E-04   1.1869447951427818E-02   3.5922040414248374E-03   2.7938603740417572E-03
         2         55   0.0000000000000000E+00   1.5254249466359160E-03   1.8787680615215243E-04   2.8596894984962500E-04
         2         56   0.0000000000000000E+00   1.2569778280300697E-03   1.4241006055024688E-04   2.0000888685955465E-04
         2         57   6.3782767631782997E-06   2.6285517863828909E-03   5.5784245179734250E-04   6.0318531688924055E-04
         2         58   0.0000000000000000E+00   1.4225316092682740E-03   2.8861516286928630E-04   3.0038178524486052E-04
         2         59   1.2990854381514049E-06   3.9736238728541604E-04   5.9407413326067873E-05   5.3550131797823049E-05
         2         60   4.8454102707227381E-05   1.2446992834728879E-03   3.4814568084652175E-04   1.8430008275101116E-04
         2         61   1.3592734353634444E-10   3.3103407543960136E-04   6.9818705403726928E-05   7.8757793920427154E-05
         2         62   0.0000000000000000E+00   1.5529584068159200E-04   1.4676675306459884E-05   2.5012342280951643E-05
         2         63   1.0003423945960755E-05   3.4953349088610457E-04   8.3899914391833766E-05   5.9324282992707599E-05
         2         64   1.2830891433079392E-09   1.1726115234953630E-03   4.7133483052316224E-04   2.7788648739406497E-04
         2         65   1.1857587537512351E-12   6.0202236108905657E-04   1.1619330757155369E-04   1.4256312062890187E-04
         2         66   1.5303819307593937E-07   6.7418676585861525E-04   1.7483313624925016E-04   1.3577093958958762E-04
         2         67   3.9110217670209976E-26   1.5103109958120140E-04   1.6914768291234557E-05   2.7286656810163128E-05
         2         68   3.2599051813667106E-06   2.0345247356476168E-03   4.6986138067590575E-04   4.1736710930557656E-04
         2         69   3.0124737029181141E-04   7.7664493785156736E-03   2.5808124896127202E-03   1.6293526882290093E-03
         2         70   1.2918247827421073E-06   1.4341469147438740E-03   3.2218201900743372E-04   3.2411286815246679E-04
         2         71   0.0000000000000000E+00   1.0165431842027732E-03   1.5437716082156131E-04   1.9402786972483346E-04
         2         72   1.8747508667572451E-05   1.5244326266182491E-03   4.8030580198946089E-04   3.4314709379393407E-04
         2         73   4.3674036337109533E-04   9.3035599109374846E-03   3.2774958226157885E-03   2.0852501787080226E-03
         2         74   1.3390587059375784E-05   4.3917018617311903E-03   9.9178230610304555E-04   1.0294041163714952E-03
         2         75   0.0000000000000000E+00   1.7461174839583891E-03   2.6815532221286892E-04   3.1933071742590373E-04
         2         76   1.6697021116854116E-04   4.6010049062364371E-03   1.3839459037945487E-03   9.4325689570019442E-04
         2         77   0.0000000000000000E+00   5.5634001552743047E-04   7.5342011570821190E-05   1.0055209667976048E-04
         2         78   0.0000000000000000E+00   5.0525876624155086E-04   5.4566966084169828E-05   7.5816677020405402E-05
         2         79   4.6232743956199049E-07   1.1630123942097800E-03   2.6154142558954717E-04   2.4047220591297581E-04
         2         80   0.0000000000000000E+00   4.6133527531287997E-04   9.6490462670132627E-05   9.8105777512766393E-05
         2         81   4.9104912239962161E-05   1.1728306948116300E-02   1.7453123087282237E-03   1.5963992094440221E-03
         2         82   3.7031117138146582E-03   4.1791290389011755E-02   1.2292713319686193E-02   6.4699734837465215E-03
         2         83   1.0410095709350221E-08   8.7906668076953853E-03   1.7076599254808975E-03   1.7051165086528651E-03
         2         84   0.0000000000000000E+00   4.7682401821492210E-03   7.3986891519513644E-04   1.1535291460547589E-03
         2         85   5.5418164075369863E-04   5.7156132588700649E-02   1.3000620906627189E-02   9.0731460669069060E-03
         2         86   8.6407488104403108E-08   3.0177731603138261E-02   4.6119527865312480E-03   5.7088320691569871E-03
         2         87   0.0000000000000000E+00   1.0267121629873262E-02   1.1430821120930474E-03   1.6698383628332150E-03
         2         88   6.1970612551040668E-04   2.0845970259631464E-02   6.1687098448474711E-03   3.7788067819350358E-03
         2         89   0.0000000000000000E+00   3.5606830312339089E-03   2.5441503378300663E-04   5.0248238012143385E-04
         2         90   0.0000000000000000E+00   3.4869050187373960E-03   2.1231664069587642E-04   4.2108223328355543E-04
         2         91   8.6799083603899108E-10   4.9437641899999687E-03   6.4660715960442332E-04   8.2036893838074022E-04
         2         92   0.0000000000000000E+00   3.6946810757554076E-03   3.9820551980889536E-04   5.1742844741767106E-04
         2         93   5.9443281243389927E-06   3.1181487506045619E-02   5.2062278559697169E-03   5.8778927568269423E-03
         2         94   5.5746174094684188E-03   1.0248054166694424E-01   2.9227882542121719E-02   1.7121200846888764E-02
         2         95   4.6763930792301177E-08   1.5721144182306006E-02   3.2146308912957347E-03   3.4562100960811529E-03
         2         96   0.0000000000000000E+00   1.4929887043539090E-02   1.9200349958845241E-03   2.9968928999865611E-03
         2         97   3.1477402352823517E-04   2.5569488233226224E-02   5.7127235583077128E-03   4.0383793712532191E-03
         2         98   5.0425615507942462E-03   1.3312976582203315E-01   3.3588655408291639E-02   2.3103470683054548E-02
         2         99   1.6423208826880153E-06   6.8432785122957487E-02   1.1061259112201400E-02   1.3299466021739561E-02
         2        100   0.0000000000000000E+00   2.6087168047348629E-02   2.9687934569308941E-03   3.9752777682973564E-03
         2        101   2.4704696714285871E-03   4.5829004817836187E-02   1.4653607176598868E-02   8.8642747820564995E-03
         2        102   0.0000000000000000E+00   9.0260020413653677E-03   8.7854649463769096E-04   1.4108151188565567E-03
         2        103   1.1705760720654455E-06   1.3632052499666284E-02   2.4308940773156229E-03   2.5111743609943548E-03
         2        104   0.0000000000000000E+00   5.6693753405287388E-03   6.8162507949835044E-04   9.4593847390992531E-04
         2        105   0.0000000000000000E+00   7.6650152313275984E-03   1.0288691293961799E-03   1.2877941247237640E-03
         2        106   5.0862596586139508E-07   1.2704004431836427E-03   2.0037498179590249E-04   2.0596374661903367E-04
         2        107   9.5808810776185421E-05   4.9638103076359661E-03   1.7455155163406445E-03   9.2080409681281027E-04
         2        108   2.1383245971737900E-12   1.5164867653288962E-03   3.1323018485983876E-04   3.5670443675930814E-04
         2        109   0.0000000000000000E+00   1.0875368171400668E-03   6.9844932563433855E-05   1.4170206422889464E-04
         2        110   6.1412513827264434E-06   1.9217276480418624E-03   3.2548429003016310E-04   3.2844418131007638E-04
         2        111   1.0812645700118749E-08   5.0021462062256128E-03   2.2297641616944187E-03   1.3491630032458327E-03
         2        112   4.8870288947022460E-12   3.5975024890601312E-03   6.0332463569478492E-04   8.8937085962864572E-04
         2        113   3.7297761346619695E-07   3.1084222882734871E-03   8.1097626577449164E-04   7.5617700662739093E-04
         2        114   0.0000000000000000E+00   1.9598696067773847E-04   8.6322777060257910E-06   2.1509386268764573E-05
         2        115   0.0000000000000000E+00   5.6375406388584840E-04   6.2672685307620248E-05   1.3197410565525923E-04
         2        116   0.0000000000000000E+00   2.6574296134520479E-04   1.4174667872187969E-05   3.3827113798088587E-05
         2        117   3.7973626755217040E-07   1.2441102383582458E-02   2.3059255736691663E-03   2.6273395323181551E-03
         2        118   0.0000000000000000E+00   5.4727526278918462E-03   7.3655064401232349E-04   1.0526826280055216E-03
         2        119   4.4336004297454567E-05   7.1081525628732545E-03   1.6363214652825018E-03   1.2088689124556840E-03
         2        120   2.7107570072014671E-03   4.3878823304820805E-02   1.5621892725348701E-02   8.4577041167210477E-03
         2        121   1.3012839006163168E-06   2.1723187543624171E-02   4.2396598633654978E-03   4.5975470206713913E-03
         2        122   0.0000000000000000E+00   8.9416214078780146E-03   1.1520454635956853E-03   1.4612263150850292E-03
         2        123   9.2201123242919452E-04   1.6483827268691312E-02   5.6397594310027216E-03   3.0946870060211012E-03
         2        124   0.0000000000000000E+00   1.8667967227538808E-03   2.4968921794778378E-04   3.7223650428857961E-04
         2        125   1.4923198192506666E-07   5.5213924929767549E-03   1.1949188577410328E-03   1.0982843611040463E-03
         2        126   0.0000000000000000E+00   1.2877524841018190E-03   1.4798168417477303E-04   2.1989952944167685E-04