352
 i =    21500, time =    10750.000, E =        96.4525473615
  H         9.9671526971        4.7984476658       31.4483426117
  C        10.2799935906        5.7498993307       31.9341917587
  H         9.3414320592        6.2418688078       32.2284168761
  C        10.8795504940        6.5820187776       30.8891600725
  C        11.1055200771        5.4912519842       33.2103745545
  C        11.7252090991        5.7323748140       29.8828385073
  H        10.1772763417        7.2589414970       30.3759235890
  H        11.5473623738        7.2810228203       31.3217866900
  H        12.0268335413        5.0361708278       33.0676876768
  H        11.2932294486        6.3876452275       33.9056690771
  H        10.5574615451        4.6845320135       33.7141338412
  C        10.8457162498        5.0154536332       28.8815114648
  H        12.2262455038        4.9814676314       30.4204441284
  H        12.5044433347        6.2540729292       29.3506798470
  C        11.0177636952        5.5988521565       27.4080785517
  H        11.2673879385        3.9966508952       28.9368430215
  H         9.7882801093        5.0042578432       29.2180977160
  C         9.9038232694        5.0691745426       26.5041997406
  H        11.9754288883        5.2184491813       27.0451992920
  H        11.0054155802        6.6747072238       27.3445070889
  C         8.5495285779        5.8932585238       26.3951396007
  H        10.3418180693        4.8505799424       25.5096531004
  H         9.6199978567        4.0846294077       26.7973613124
  C         7.4130872501        5.0579541607       25.7450989916
  H         8.3184491599        6.1822127036       27.3978906491
  H         8.7218110449        6.8264960083       25.8941229424
  C         6.9959318090        3.7086505303       26.4195042832
  C         7.8680388577        4.4387617249       24.4602744488
  C         6.1252916355        5.8849139839       25.4622775850
  C         7.3059875276        2.6894758726       25.5766839542
  C         6.5539278991        3.2486222367       27.6773744470
  C         7.8570496221        3.0904231265       24.3314424149
  C         8.2546124977        5.1101167187       23.3114477285
  H         6.3902967421        6.4869948725       24.5779711062
  H         6.0038347799        6.6011463226       26.2836647438
  C         4.7592691450        5.1594204917       25.1286931110
  S         6.9694597950        1.1556828896       26.3134405321
  C         6.4900798258        1.8868597339       27.7243590259
  H         6.2554883867        3.9182151899       28.4675287322
  C         8.2676633818        2.4737532685       23.1818798760
  H         8.2876572304        6.2129758278       23.1875385476
  C         8.7320517036        4.5014614649       22.1573880781
  H         4.9364767191        4.5379912478       24.2568681440
  H         4.5524556159        4.4589305142       25.8520231595
  C         3.5850203866        6.1064564530       24.9822176385
  C         5.9702338756        1.2005606997       28.9565801033
  C         8.6736345375        3.1766086507       22.0060908524
  H         8.1976865679        1.3836798089       23.0711972830
  C         9.1526546559        4.8497155680       20.9076431940
  H         2.9538645310        5.6216423239       24.1923445817
  H         3.7940122486        7.0479103853       24.3763840252
  C         2.9396048190        6.5285449631       26.2903676546
  C         6.0742055347       -0.2214764395       29.1857839651
  C         5.4248329158        1.9759960665       30.1129262763
  C         9.1061487972        2.4804391472       20.8266231290
  C         9.3294603789        3.7969686291       20.1075859866
  S         9.4637808037        6.3652686638       20.1380397672
  H         2.4073329860        7.4922650979       26.3542562879
  H         3.7934151724        6.6379703915       26.9297600878
  C         2.0518713738        5.3818988507       26.7252476039
  N         6.4426881214       -1.1746057420       28.2876524383
  C         5.7254128107       -0.7859330069       30.4118003584
  C         5.0277390715        1.3671674283       31.3059786578
  H         5.3018423108        3.0958809977       30.0595727114
  C         7.8741413432        1.6957599380       20.2494302746
  C        10.4043141172        1.5862046507       21.0176034193
  C         9.6950485262        4.1376260806       18.7741806049
  C         9.8195085277        5.4915350817       18.7217957304
  H         1.4224842211        5.0300873155       25.9483671292
  H         2.7203870832        4.5217404316       26.9139004791
  C         1.2451199984        5.9962890967       27.9216855560
  S         6.4050974907       -2.6184600461       28.9683294313
  N         5.9903510439       -2.1172277535       30.4738243124
  C         5.2431291964       -0.0261649317       31.5017238083
  H         4.6402547918        1.9989066577       32.0702291564
  H         7.7583635480        0.7823555761       20.8205915364
  H         8.2786218811        1.3421845810       19.2893899784
  C         6.5763391492        2.5255056613       19.8813981664
  H        10.7111969400        1.2208013727       20.0372173565
  H        10.0620503639        0.7677613757       21.6137973365
  C        11.6504040667        2.3651443524       21.5902073522
  H         9.8669061459        3.2769032343       18.0793828678
  C        10.0674582420        6.2963540822       17.4493231276
  H         0.5241919203        6.6648248193       27.5307113974
  H         1.8850771731        6.5749604769       28.5971489715
  C         0.6085763561        4.8066801964       28.7594606878
  C         5.0808835507       -0.7480138460       32.7813593113
  H         6.7791581749        3.2767907519       19.1601913776
  H         6.2826411585        2.9885553024       20.8316253583
  C         5.6087538160        1.5287751065       19.3008148866
  H        11.3380525347        2.6887749390       22.5643262862
  H        11.8565730187        3.2982078540       21.1448901474
  C        12.8402844351        1.4072090629       21.6911717419
  C        10.0851849474        7.7232379353       17.3307239865
  C        10.2998461063        5.5488567440       16.1923382597
  H        -0.3099772918        4.6017674230       28.2635153773
  H         1.2668485911        3.9457126194       28.7907600168
  C         0.3694994676        5.2281631427       30.1055293842
  H         5.2509375369       -1.8339693484       32.8553743860
  C         4.7872437635       -0.3046105800       34.0215424388
  H         5.3919672929        0.7703319718       19.9961423085
  H         6.0801013330        1.0358685301       18.4633888831
  C         4.3190526945        2.1257731381       18.6779443751
  H        12.4505106327        0.6498486526       22.3897878929
  H        12.9496923687        0.8570265017       20.7111233753
  C        14.2410161479        2.0451810189       22.1032501043
  N         9.8186547803        8.6427799570       18.3235381953
  C        10.4116531430        8.3836502070       16.1376636840
  C        10.5911298176        6.2194599177       15.0434006745
  H        10.4285359129        4.4908851759       16.1177092969
  H         0.3525320691        6.3426351392       30.1234485995
  H        -0.5599284302        4.8251358365       30.5702025716
  H         1.2825728061        5.0448768411       30.6650943139
  S         4.4743888778        1.3646487402       34.4864317344
  C         4.7944165659       -1.2158355244       35.1625406284
  H         3.9414102913        3.0060161161       19.2335251776
  H         4.5435059266        2.5416782972       17.6918352049
  C         3.1690373741        1.0874620319       18.6135510363
  H        14.5101008032        2.6687257877       21.3012134428
  H        14.9383983904        1.3112075161       22.1753096852
  C        14.2083914395        2.9331110236       23.3262606016
  S         9.8680611540       10.1766777139       17.7354597952
  N        10.2796987952        9.7905677372       16.1736820324
  C        10.7609864180        7.6422342206       14.9219103258
  H        10.7960123730        5.6385737057       14.1672576573
  C         4.2569056175        0.7076247022       36.1397443079
  N         4.3860528710       -0.6406232297       36.2951664420
  O         5.0425266820       -2.4424970460       35.0424195053
  H         2.3118696175        1.6487179295       18.4187848638
  H         2.9822494032        0.6481116463       19.5946525799
  C         3.5692816710       -0.0305003929       17.5304721538
  H        13.5555224343        3.7953470660       23.0858375753
  H        13.7164089908        2.5086710335       24.1585242392
  C        15.5109002837        3.4837766958       23.7295707975
  C        10.9071273767        8.3803939081       13.7544395776
  S         3.7827792919        1.6841834642       37.4972934079
  C         4.3094788407       -1.3485743109       37.5342511268
  H         3.0917815677        0.1252123092       16.5660091481
  H         4.6503771613       -0.1932001537       17.3557875371
  C         3.1254721166       -1.4681611605       17.9999735996
  H        15.2506948189        3.9822384638       24.6239248702
  H        15.8308844405        4.4178919423       23.2339306087
  C        16.6428997821        2.4894185264       23.9807706215
  H        10.8206390162        9.4158657133       13.8989875863
  C        11.3195856028        8.0605143264       12.4548341798
  H         3.4451652176       -0.8611386378       38.0544953112
  H         4.0967085345       -2.4525847897       37.3475303607
  C         5.6346918237       -1.2696357316       38.3140905667
  H         2.0090514526       -1.4614169672       18.1840233618
  H         3.6568191490       -1.7005489909       18.9050151922
  C         3.2769163073       -2.4866983574       16.8417423980
  H        17.0831808485        2.7547768158       24.9786344112
  H        16.2506453908        1.4804423218       24.1700364059
  C        17.8277025813        2.3897457425       22.9576867624
  S        11.7254223227        6.5111897219       11.8567970836
  C        11.4495695996        9.1778715184       11.4242836535
  H         5.6102772034       -0.3737350962       38.9540905193
  H         5.7611086181       -2.1386951763       38.9231850662
  H         6.4574956612       -1.2471983732       37.6353314910
  H         2.8149831222       -3.4529006601       17.1956595268
  H         4.2943496065       -2.5595198219       16.4427401351
  H         2.5529044342       -2.1912383694       16.0650699993
  H        18.7472245769        1.9310825900       23.3318901117
  H        18.0918835864        3.3687992793       22.6411100459
  H        17.4553123377        1.7815562053       22.0926873520
  C        12.0659391262        7.3808220781       10.3318195880
  N        11.8538374365        8.6940673769       10.2829105092
  O        10.8792666134       10.2289432484       11.6692763318
  S        12.7516170518        6.5435999623        8.9291643747
  C        12.0196308490        9.5942524826        9.1469704322
  H        12.3012526043       10.5745787971        9.5781989452
  H        12.8942540531        9.2463906024        8.5721293242
  C        10.7739694336        9.6984852776        8.3056861658
  H        10.6941162341        8.8412493311        7.6749198291
  H         9.8365770021        9.7425800452        8.8478258448
  H        10.9999778955       10.5042365250        7.6584655364
  H         4.5763544244        1.4992123218       12.7996720284
  C         4.0280886933        2.4293893415       12.9642497323
  H         4.7547289549        3.2863494000       12.9610890755
  C         3.1113676983        2.5812711575       11.7847087166
  C         3.2394152272        2.4204472324       14.2895717910
  C         3.8067611550        2.8834223777       10.4459500425
  H         2.4669854226        3.3927329966       12.1732823613
  H         2.5759479778        1.6575820785       11.5803156177
  H         2.6389859334        1.4660693084       14.3837514808
  H         2.7576842361        3.3392028376       14.3929553761
  H         4.0185430552        2.3237687292       15.0308541366
  C         4.4092403233        1.6208188778        9.8678044583
  H         3.0704507540        3.1812348205        9.6914448672
  H         4.5315612782        3.7392344585       10.5106020062
  C         5.1044545144        1.8221102383        8.5513353502
  H         3.6218127354        0.9322995124        9.5848090333
  H         5.0870154618        1.1182713883       10.5935528752
  C         6.5039532725        2.5058475547        8.7503144145
  H         4.4569722158        2.2882669536        7.8564070747
  H         5.2084675184        0.8804682192        8.1157927997
  C         7.7036485590        1.6709676576        9.1095495434
  H         6.8463510486        3.0186482446        7.8194631634
  H         6.3555693252        3.2621224067        9.4808801404
  C         9.0236470860        2.5116574442        9.2982048367
  H         7.8232241636        0.8805626306        8.3072753933
  H         7.6626758257        1.0582024304       10.0540556115
  C         8.6715205329        3.8450718278        9.9621979910
  C         9.6129191220        3.2081132214        8.1226468733
  C        10.1688897629        1.8466069775       10.0700828689
  C         9.0043801153        4.9436547234        9.2068578805
  C         8.1468057627        4.2321640865       11.1659217832
  C         9.5570378489        4.5289330223        8.0400428120
  C        10.1431884880        2.5825698208        7.0094967428
  H         9.8022412162        1.2877707403       10.9492850038
  H        10.5458184720        1.0098078373        9.4776019788
  C        11.3045495146        2.8362211988       10.4057696469
  S         8.5849060185        6.4969574398        9.9331178122
  C         7.9614093026        5.5657090731       11.2797507485
  H         7.9437231398        3.4822986708       11.8893993572
  C        10.0315661998        5.2075679385        6.9311706594
  H        10.2968911399        1.5654249881        6.9399065931
  C        10.5566709547        3.2045977445        5.8580667242
  H        10.9162419012        3.7706109206       10.9444744458
  H        11.8298736793        3.1503717645        9.4696295128
  C        12.4074497216        2.0717420643       11.2515070812
  C         7.4644478160        6.1676710867       12.5502072431
  C        10.5443006799        4.5724342623        5.7637943068
  H         9.9753434248        6.2709630631        6.9173965264
  C        10.8702386387        2.8124769144        4.5533857750
  H        13.3401726954        2.6640668126       11.1085431418
  H        12.5001943702        1.1140421927       10.6900967107
  C        12.0047940713        1.8917638010       12.6910554524
  C         7.5556111310        7.5500916324       12.8499059507
  C         7.1124703266        5.3186743397       13.7344411609
  C        10.8218918899        5.3519970783        4.4671873873
  C        10.9882579994        3.9524267476        3.7282703529
  S        11.1890709821        1.3212988382        3.8842726756
  H        11.6447886945        2.8287659416       12.9631622692
  H        11.2170453331        1.1087062986       12.7694966963
  C        13.2550972929        1.4606765214       13.4847386259
  N         7.8765194036        8.5427045537       11.9111092735
  C         7.4283467238        8.0653995584       14.1504438015
  C         6.8137089059        5.8434607995       14.9761788309
  H         7.0152013391        4.2542282407       13.6062603065
  C        12.1908705095        6.1848832925        4.4543798093
  C         9.7593054531        6.2997138624        3.9982805704
  C        11.3206585896        3.4761691473        2.4281487586
  C        11.4289008874        2.1478206398        2.3467400071
  H        13.8030263337        2.3612922367       13.8051700735
  H        13.8870865550        0.9685967536       12.7412243540
  C        12.8876632641        0.7136299680       14.7398493212
  S         8.0658774117        9.9282891427       12.7446567700
  N         7.8294609696        9.4123094195       14.2382578047
  C         6.9562808357        7.3007246021       15.2510273855
  H         6.6788436568        5.1619588073       15.8281354733
  H        12.0253592130        7.0443730399        5.1151710587
  H        12.3569960680        6.6780226647        3.4860113148
  C        13.4793715512        5.4353071124        4.9754041212
  H         9.4247989998        7.1272991947        4.6594335143
  H         9.9809323885        6.8496098691        3.0907688118
  C         8.5977808187        5.4795002360        3.5224843667
  H        11.5373825394        4.1797233357        1.6412075664
  C        11.8226256684        1.4317641086        1.0979332261
  H        11.9474220080        0.1310033314       14.7121843674
  H        13.7069771547        0.0139519416       14.9114513731
  C        12.6690898013        1.8206256049       15.7610127295
  C         6.8745057296        7.9830716828       16.4988739812
  H        13.3088453528        4.8029791904        5.8087639006
  H        13.5708988893        4.8458084110        4.0212520942
  C        14.5958522274        6.4414309209        5.3227621520
  H         8.0669000586        4.9777194519        4.2862531901
  H         8.9314704562        4.7968152371        2.7133794636
  C         7.5746137090        6.4305469292        2.8135171621
  C        11.8389763067       -0.0279779043        0.8769733238
  C        12.0533640202        2.2760772302       -0.1165444612
  H        11.7920866513        2.3857076319       15.5304646502
  H        13.4828726062        2.4920761077       15.7547262687
  C        12.5223844717        1.2853878807       17.1967982727
  H         6.5331038231        8.9875997572       16.3370937507
  C         6.6108897744        7.5083528854       17.7709400773
  H        14.2324848770        6.9786570984        6.2458397226
  H        14.4659528411        7.2381193707        4.5878544825
  C        15.9455478274        5.7691231031        5.5006962168
  H         7.3230556279        7.2801300363        3.5269270337
  H         8.0453250485        6.9505739074        1.9820605156
  C         6.3417538881        5.7959511466        2.2540511519
  N        11.5619256861       -0.9172161474        1.9377282756
  C        12.0680313435       -0.5950758538       -0.3552661997
  C        12.3496735065        1.6597400137       -1.3261369686
  H        12.1609045078        3.3251470141       -0.0943109144
  H        11.8201348906        0.4288294868       17.3357195932
  H        12.2291616872        2.0506566758       17.8754180694
  H        13.5074826995        0.8532952989       17.3966863111
  S         6.4355995753        5.9422542316       18.2577837305
  C         6.3738665568        8.5378000553       18.8799804957
  H        16.1685446140        5.1672395510        4.6706857013
  H        16.7295229774        6.5045208653        5.5961756489
  C        16.0249792661        5.0002756169        6.8054051882
  H         5.8935549938        5.1768065156        2.9896189943
  H         6.5966986430        5.0228167819        1.5461015572
  C         5.3314663014        6.8012963351        1.7524797284
  S        11.4622735613       -2.3755495080        1.3116497828
  N        12.0307771724       -1.9626134683       -0.1789849998
  C        12.3084859335        0.1783091181       -1.5440978398
  H        12.4846112575        2.2795089253       -2.1873495488
  C         6.1688077509        6.5406258748       19.9088086651
  N         6.0531671027        7.8544801437       20.0192063991
  O         6.3613074033        9.7633499715       18.6610521273
  H        15.7800115743        5.7439775568        7.6077177559
  H        15.2617590540        4.2502606978        6.8569263777
  C        17.4444675603        4.5103517762        7.2113079388
  H         5.7493516243        7.5714466990        1.0829506113
  H         4.7423067409        6.2139385998        1.0811882252
  C         4.4463394690        7.4287598187        2.8888299937
  C        12.7150910405       -0.5346444613       -2.7079883776
  S         5.3284360682        5.5587900536       21.1703470187
  C         5.9367239057        8.6033323627       21.2855294496
  H        17.3229976631        4.0907000106        8.2181761146
  H        17.6423541378        3.6474504742        6.5875780928
  C        18.6984080550        5.4801197108        7.2560752270
  H         5.0892957558        7.8948630865        3.6199894992
  H         3.9538377951        6.6578598775        3.5023994313
  C         3.5159498093        8.5705363177        2.3135994898
  H        12.5817214958       -1.5707465511       -2.6213170641
  C        13.2978886640       -0.1298852335       -3.8908777321
  H         5.3905899004        8.0746613232       22.0326380139
  H         5.3114261242        9.4686175308       21.0601466913
  C         7.2869420644        8.9888138383       21.9132221672
  H        19.3835874269        5.1209218018        7.9535892822
  H        18.4184602115        6.4486429542        7.6398801981
  C        19.3829992661        5.7410643567        5.9507129897
  H         2.8625913587        8.1985402601        1.5355159195
  H         2.7712207824        8.8949267331        3.0824177812
  C         4.2421976885        9.8711291531        1.7743275460
  S        13.7670716790        1.4224354889       -4.3767859082
  C        13.4103180412       -1.2055645976       -4.9010980635
  H         7.2660415321       10.0093038410       22.3169489667
  H         8.1287367138        8.9289764408       21.1664845457
  H         7.5865733289        8.4072525317       22.7731035269
  H        20.4282869225        5.9069761608        6.0611358219
  H        19.2266034542        4.8775200425        5.4145284716
  H        18.9312150433        6.5346180727        5.3696412087
  H         4.8641078893       10.3072270865        2.5555980878
  H         4.8597673149        9.6403473613        0.8485421046
  H         3.4647420119       10.6108627745        1.4739125484
  C        14.1424518728        0.7015375118       -5.9057579567
  N        14.0122116052       -0.6754410288       -6.0084298509
  O        13.0610426059       -2.3719031697       -4.7722455194
  S        14.9297317708        1.5319968125       -7.2858225231
  C        14.2334913675       -1.4873224852       -7.2293270015
  H        14.3826327210       -2.5577240636       -7.0566645952
  H        15.0680678105       -1.1778386477       -7.8563139565
  C        12.9722057996       -1.2410713444       -8.0265455203
  H        12.6380068896       -0.2124056891       -8.0257484860
  H        12.1211209885       -1.9887971211       -7.8243473489
  H        13.1539660342       -1.4240582877       -9.0730438125
