352
 i =    15900, time =     7950.000, E =       111.5867401120
  H        10.0683018910        6.7639303171       32.3498281141
  C        11.1419354399        6.4958334782       32.0900744986
  H        11.7317834747        7.3378906224       32.5095374533
  C        11.4417990821        6.3862530062       30.6755480625
  C        11.4156031198        5.2097298427       32.8042162758
  C        10.5804196635        5.2439238243       29.9863750980
  H        11.3304189948        7.3373868416       30.2728877328
  H        12.4891057849        6.1165800344       30.6005573784
  H        12.3626904022        4.7861459650       32.4295141538
  H        11.4705986927        5.4026644234       33.8953758517
  H        10.6850868935        4.4483029509       32.5268160182
  C         9.9009492428        5.8058974566       28.7850565362
  H         9.7587503083        4.9996311463       30.5865203298
  H        11.1589348705        4.3373541592       29.8719874794
  C        10.6793409597        5.4595918638       27.5918452031
  H         8.8163039293        5.4391432829       28.7890772101
  H         9.7832984987        6.8629540937       28.8187750476
  C         9.7209880960        4.7035346459       26.6415718878
  H        11.5758065536        4.7592767053       27.7838634589
  H        11.0620402333        6.4274823927       27.1360526969
  C         8.5040546700        5.6321694511       26.1546576115
  H        10.1290201687        4.0970208307       25.7829544633
  H         9.2628574538        3.9850003688       27.2666338444
  C         7.3402217041        4.9485431369       25.4296806934
  H         8.0133345315        6.2487387493       26.9044422231
  H         8.9819478031        6.3470478417       25.4966388042
  C         6.8855705075        3.6530629826       26.0729453448
  C         7.7413689709        4.2770920517       24.1837283937
  C         6.2036909517        5.9788408854       25.2043221031
  C         7.0697030869        2.5762498863       25.3638830659
  C         6.3921059560        3.3400134848       27.3761481875
  C         7.6244113794        2.9346124882       24.1138227908
  C         8.3102469702        4.8806775140       23.0780062234
  H         6.4308757668        6.6397842706       24.4395483780
  H         6.0601001692        6.5838509711       26.1111690952
  C         4.8220306870        5.3650830845       24.9122424768
  S         6.7067846308        1.0644241975       26.0781924883
  C         6.2768656874        1.9688644661       27.5081608728
  H         6.2003780204        4.1666636711       28.0294717743
  C         8.0704427671        2.2873926699       22.9678879970
  H         8.5238311232        5.9368392578       23.0209850445
  C         8.5791212091        4.2865473348       21.8972579678
  H         4.9842380104        4.9350957489       24.0256355546
  H         4.5851381877        4.5395343502       25.5870019793
  C         3.6411867017        6.3256558435       24.6154983815
  C         5.8365283093        1.3687207096       28.8201013427
  C         8.4837244948        2.9339692919       21.7977307157
  H         8.0260386891        1.1936125870       22.9332444828
  C         8.9939266525        4.6464961159       20.5745804228
  H         2.8411465050        6.0177030599       23.9424033535
  H         4.1193609074        7.1895086516       24.0507229602
  C         3.0781417880        6.8561740172       25.9649196031
  C         5.5863214490        0.0114552899       29.0618895479
  C         5.6499829272        2.2464155905       30.0475494424
  C         8.7583802321        2.2422115376       20.4613282767
  C         9.0979882025        3.5388129693       19.7550040736
  S         9.2660981051        6.0856496420       19.6773219764
  H         2.3671672402        7.6987238761       25.9062630178
  H         3.9071477980        7.2687147864       26.5414194112
  C         2.4039600670        5.6909785332       26.7288870137
  N         5.7663074706       -1.0216765633       28.1700916771
  C         5.4633388018       -0.5419332370       30.3553999137
  C         5.2725928215        1.7291051468       31.3087607961
  H         5.7647615774        3.2974353809       29.9918371093
  C         7.5340700402        1.3253383572       19.9669607974
  C         9.9355739990        1.2932481847       20.5614278809
  C         9.3686070009        3.8937995934       18.3982249884
  C         9.5503415804        5.2397500008       18.2543358806
  H         1.8846947653        4.9061708343       26.1416507525
  H         3.0907830661        5.2638376480       27.3907258968
  C         1.4473534737        6.3236367358       27.6959610188
  S         5.6931758006       -2.4989019366       28.8246526765
  N         5.4575674960       -1.9539826124       30.3749412426
  C         5.2303783355        0.2542293892       31.5268103640
  H         5.0748381679        2.4931584251       32.1020253077
  H         7.1438084308        0.6676270345       20.8030325339
  H         7.7611390914        0.6200210314       19.1851837729
  C         6.3817489906        2.2634668191       19.5650968208
  H         9.9481197531        0.7540014596       19.6620371846
  H         9.8350139207        0.5854323228       21.3997602969
  C        11.2470525686        2.0086006623       20.6918637240
  H         9.4502813453        3.1544245099       17.6371443569
  C         9.9086242489        5.9766731838       17.0063832860
  H         0.5588014774        6.7520513472       27.2123619385
  H         1.9130610779        7.1744734456       28.0266646398
  C         1.0227833427        5.2905861302       28.7885500591
  C         5.0773714612       -0.4082052116       32.7862018835
  H         6.7660552591        3.0114989321       18.9531107365
  H         5.9692579079        2.7306138462       20.4361467359
  C         5.2495796267        1.5404660562       18.8130685505
  H        11.2112860405        2.7414148794       21.5322185218
  H        11.3953141615        2.6361441881       19.8044372613
  C        12.5262886370        1.0870116470       21.0132291742
  C        10.0367343835        7.3745058941       16.8995891997
  C        10.3625535313        5.1415892782       15.8330357515
  H        -0.0942019890        5.1288593663       28.7701290395
  H         1.5340700203        4.3204005341       28.9061613209
  C         1.0711637404        5.8627186218       30.2058851863
  H         5.2918978824       -1.4567372770       32.6076612210
  C         4.7094630573        0.0060053870       34.0435469530
  H         5.1585293558        0.5692004064       19.2900026679
  H         5.6482680215        1.4798431045       17.7992496834
  C         3.9509215393        2.1620019974       18.5026646474
  H        12.3691788041        0.3571644860       21.7197042037
  H        12.5473789604        0.4868992456       20.0270341269
  C        13.9401128996        1.6947321581       21.3170412875
  N         9.7162829046        8.3495574892       17.8525096535
  C        10.3581275000        7.9666456374       15.6929172794
  C        10.8141625569        5.8046233395       14.6748438572
  H        10.3353077830        4.1268541676       15.9663571464
  H         0.7546769067        5.0746652312       30.8822271520
  H         2.1261546042        6.0969463883       30.2866402212
  H         0.6012565666        6.8825336085       30.4108193385
  S         4.4687365766        1.6729879931       34.5370500129
  C         4.6122436517       -0.9966994371       35.1347997981
  H         3.8445837057        3.1540600644       19.0259739562
  H         3.8989569351        2.4026382221       17.3942428189
  C         2.7446259738        1.2877937238       18.7429257448
  H        14.1202049920        2.4679410460       20.5847388609
  H        14.7445074905        1.0115555803       21.1299853445
  C        13.9970816107        2.2303783691       22.7083672370
  S        10.2526075646        9.8143777462       17.3406664043
  N        10.4998983660        9.3710925061       15.7781551353
  C        10.7509320617        7.2919896342       14.5159503452
  H        11.0787811456        5.2003099418       13.8387571592
  C         4.2779296780        0.9752159531       36.1543259521
  N         4.3527539539       -0.3776225987       36.2624558066
  O         4.7160466546       -2.2463135108       34.9722941324
  H         1.8105556205        1.7872078680       18.6249044325
  H         2.8125744398        0.9136222971       19.6993271867
  C         2.6238184687        0.0842628449       17.7936434275
  H        13.1088793717        2.8719060513       22.9509919256
  H        13.7193712495        1.3570979160       23.2892680484
  C        15.1823554116        2.9772544038       23.1566167213
  C        11.2930378307        7.9954427416       13.4149970977
  S         3.9023097711        1.8961067256       37.6381628032
  C         4.3508972235       -1.1215331592       37.5502121580
  H         1.9617483968        0.4788268731       17.0058731101
  H         3.5402582535       -0.1634336799       17.3394269126
  C         2.0593905134       -1.1580321880       18.4041060716
  H        14.9879128456        3.2890015201       24.2070918147
  H        15.2082236773        3.8727884560       22.5761641121
  C        16.4549780366        2.1476184438       23.1112374285
  H        11.1226684050        9.1734054883       13.5324668734
  C        11.6876941070        7.6862159938       12.1020075403
  H         3.7400584038       -0.7627574420       38.3498050370
  H         3.9933311725       -2.1397029068       37.3063676145
  C         5.7512171231       -1.1151370145       38.0016983237
  H         1.2074940976       -0.9141259496       18.9854945454
  H         2.7565653292       -1.4577486306       19.2263140497
  C         1.6824050527       -2.2471012527       17.3482046927
  H        16.9594655685        2.4654483263       24.0143291888
  H        16.2091667728        1.1092371325       23.1951411603
  C        17.3172956659        2.3877780995       21.8867664562
  S        12.2013627182        6.1794625198       11.4776189748
  C        11.8082388379        8.8070234866       11.1911630469
  H         5.8490010147       -2.0208631265       38.6455081987
  H         6.5588015994       -1.1093115323       37.2826805949
  H         5.8668213317       -0.3306631954       38.6953322674
  H         1.0669861393       -3.0010557265       17.8590103696
  H         2.5329200953       -2.7121263175       16.8063732145
  H         1.1233520325       -1.7572670836       16.5677081773
  H        17.0268118838        1.8792248517       20.9638910881
  H        18.3107931755        1.9277484860       22.0749926319
  H        17.2554341387        3.4339223692       21.5029339443
  C        12.4872783558        7.0824969444        9.9767914116
  N        12.2951635577        8.3838985063       10.0311943499
  O        11.4944742439        9.9314011954       11.4208836372
  S        13.0708868677        6.3832778869        8.4953198564
  C        12.0196911765        9.3698673605        8.9312303702
  H        12.3656905938       10.3049045036        9.2806636211
  H        12.7149429349        9.1598414055        8.1245074309
  C        10.6442892499        9.3131738807        8.3019737637
  H        10.4559771034       10.2763108629        7.7902004834
  H        10.5958975889        8.4968545701        7.5808669360
  H         9.9312076038        8.9292199076        9.0042707381
  H         4.9104625095        1.4199847563       12.2953564244
  C         4.2653766150        2.2854419207       12.4842435218
  H         4.8537855997        3.2311337867       12.5440435536
  C         3.1948291885        2.4440407126       11.4307740022
  C         3.6955534581        2.3070449056       13.8468251322
  C         3.9123524619        2.7531684512       10.0742770765
  H         2.5761822569        3.3346121873       11.6732626222
  H         2.5559997396        1.6493276819       11.2478723184
  H         2.9483580972        1.5441654285       14.0744131199
  H         3.2396070237        3.2684686358       14.0040166376
  H         4.4582496411        1.9971423650       14.6213632344
  C         4.5362869539        1.5350363561        9.4399578594
  H         3.1053659030        3.0434451487        9.4336911065
  H         4.5928921003        3.5134562666       10.1991779583
  C         5.3379533412        1.6531629551        8.1358348028
  H         3.7472417022        0.9113021976        9.1123344582
  H         5.1923525342        1.0112600266       10.1300537945
  C         6.6833507081        2.4353289063        8.2093739530
  H         4.7001107085        2.2605698499        7.5485613854
  H         5.3695658533        0.6862862880        7.6176477818
  C         7.8726913028        1.6730412552        8.8848408832
  H         6.9900890555        2.8452341720        7.2619199292
  H         6.4218585024        3.3487067712        8.7716484323
  C         9.1089270992        2.5065908323        9.2043394251
  H         8.1593732653        0.9529590421        8.2193068003
  H         7.4864146150        1.0777891370        9.7127743348
  C         8.6812598562        3.8076492702        9.8700752586
  C         9.5576912809        3.2311568175        7.9372067989
  C        10.2912745023        1.7189951187        9.8370809701
  C         9.1014505705        4.8825239140        9.1256905342
  C         8.1489253973        4.1062604135       11.1089060962
  C         9.5516998291        4.5740581313        7.8890443374
  C        10.1033427615        2.6077650008        6.8236372256
  H         9.8926631296        1.3628475056       10.7670793476
  H        10.5801147790        0.7731078883        9.3319398869
  C        11.4976881901        2.6540623634       10.1274013454
  S         8.8112916263        6.3276607737        9.9684424568
  C         8.2048124030        5.4691220466       11.3242999260
  H         7.7437483802        3.2775572604       11.6605701063
  C         9.9297260201        5.2287776592        6.7323951865
  H        10.2434657663        1.5242403343        6.9064749424
  C        10.4768614706        3.2669950663        5.6768791292
  H        11.0766485970        3.5098874715       10.6218585113
  H        12.0619592088        2.9709572187        9.2569495712
  C        12.5283886003        1.9780027427       11.0416423486
  C         7.7085949992        6.2272091151       12.5006816407
  C        10.4346204935        4.6212997357        5.5965813168
  H         9.8808510452        6.2806319443        6.6679375052
  C        10.9583290507        2.9262928611        4.4071867420
  H        13.4418038631        2.5461618900       10.9149466219
  H        12.7933273455        1.0057553548       10.6393320150
  C        12.1533640443        1.9594768538       12.5300497162
  C         7.8773113595        7.5818804786       12.7016153670
  C         7.1170682959        5.4908929869       13.6267605842
  C        10.7922501719        5.3156015418        4.3047170431
  C        11.1098346580        4.0238704213        3.5926034885
  S        11.1898329963        1.4386794464        3.6317481304
  H        11.5706894144        2.7874982989       12.8148187529
  H        11.5339033330        1.0543988477       12.6473227553
  C        13.3484522568        1.9149209759       13.4557945553
  N         8.2513374569        8.5343374230       11.7696572094
  C         7.4661429484        8.2021304198       13.8946672515
  C         6.8225946947        6.0516924061       14.8693165112
  H         7.0167937314        4.4320445454       13.6723632005
  C        12.1427586112        6.1860293021        4.4229317340
  C         9.6627670043        6.2063383554        3.7165413228
  C        11.5153052555        3.6135617069        2.2985316441
  C        11.4705584656        2.2558529986        2.1364767402
  H        13.8081003084        2.9493698007       13.4684333509
  H        14.0204562291        1.2307231737       12.9189776121
  C        13.0888276060        1.3512265348       14.9248899027
  S         8.3760732583        9.9599544912       12.5800965050
  N         7.6534376296        9.5219552961       13.9283930881
  C         6.9654554105        7.4745508281       15.0364400871
  H         6.3824872158        5.4754201365       15.6606634754
  H        12.0671376416        7.1292615870        5.0810293206
  H        12.2407973566        6.6156455174        3.4118728384
  C        13.3836161739        5.4477726788        4.8310173075
  H         9.4142776817        7.0320650328        4.3485105662
  H         9.9279034032        6.7437983684        2.8579995621
  C         8.3959959386        5.5128831136        3.2153234546
  H        11.7546443679        4.3952452910        1.5985923359
  C        11.8656858634        1.5713608859        0.8539561598
  H        12.1271191191        0.9346779371       14.9504211800
  H        13.7299487574        0.4854421899       15.0980460072
  C        13.1486485335        2.4260877836       15.9779161644
  C         6.7782154574        8.1917777938       16.2741721605
  H        13.2665698866        5.0649586208        5.8447072422
  H        13.6856242460        4.5920485341        4.1621274322
  C        14.5664423020        6.3548324381        4.8879548801
  H         7.9834469563        4.8029605125        3.9795603391
  H         8.7844181169        4.9345224999        2.3749951022
  C         7.2290145031        6.3967170108        2.7898655108
  C        11.9016285780        0.1483658504        0.6683309941
  C        12.0743122163        2.4270605550       -0.3577716894
  H        12.3454423785        3.1847505548       15.8673906276
  H        14.0224251813        3.0255750803       15.8022516609
  C        13.2139671433        1.6288360817       17.2713363118
  H         6.9759291123        9.2084940751       16.2941525537
  C         6.4770589527        7.7290735114       17.5419074526
  H        14.5079741098        7.0890273875        5.7215512262
  H        14.5749546196        7.1395376662        4.0548492116
  C        15.8804051901        5.6660317476        4.9136362222
  H         6.8206877529        7.0536074148        3.5536262949
  H         7.7318321061        7.0750755428        2.0980796915
  C         6.1274639561        5.7412299459        2.0082790532
  N        11.5169360371       -0.8166808191        1.6203837690
  C        12.2284020740       -0.3846752796       -0.5361292997
  C        12.3932555287        1.8275516244       -1.5556108019
  H        12.0455570118        3.5482655334       -0.2955367069
  H        12.6243881253        2.1457961546       18.0632667904
  H        14.2289777969        1.5019835252       17.6272604516
  H        12.8631435672        0.6149703818       17.0914769379
  S         6.1224842534        6.1814558019       18.0962275996
  C         6.4439539673        8.7005450292       18.6537817178
  H        16.1961015298        4.8975480187        4.1655798729
  H        16.6696138644        6.3735781666        4.6747572072
  C        16.2191661299        5.1581380452        6.2728234513
  H         5.4098093852        5.3284115736        2.8060242507
  H         6.4884416371        4.7498573690        1.6720192592
  C         5.3361792220        6.6613306291        1.0717725167
  S        11.6641486589       -2.3132694112        0.8331352289
  N        12.2341921336       -1.7774455168       -0.4997379033
  C        12.5885885871        0.3743614458       -1.6824858553
  H        12.6362512297        2.4286162455       -2.4130481212
  C         5.7709417519        6.7491551859       19.6768757601
  N         6.0855384290        8.0818834056       19.8365459746
  O         6.7242505328        9.9023301290       18.4665753253
  H        15.7207262070        5.8263112040        6.9794702336
  H        15.6517945808        4.2883700248        6.4769790434
  C        17.6375542270        4.8417418819        6.5587100736
  H         5.9844924628        7.1494142935        0.3382215914
  H         4.7781569147        5.9985712570        0.4087025989
  C         4.4373492831        7.7216581430        1.7377934338
  C        12.8985947769       -0.3935122569       -2.8230887746
  S         5.3926402283        5.7108445082       21.0215396175
  C         6.2796527189        8.7369574602       21.1626850258
  H        17.6145353388        4.4515696438        7.5527201439
  H        17.9063740683        4.0444792713        5.8726590772
  C        18.5120731038        6.0783982528        6.6223387137
  H         5.0309555171        8.2883115123        2.4834216240
  H         3.6408688875        7.1999908871        2.2684763436
  C         3.7606918114        8.7564451229        0.8948878684
  H        12.7506401645       -1.4837222708       -2.8729410305
  C        13.2227219613       -0.0013935445       -4.0555856526
  H         5.5292301836        8.3496553693       21.8906828134
  H         6.1133417548        9.7755158264       21.0957314388
  C         7.7712702752        8.7184757383       21.5247368361
  H        18.2606253911        6.6448133601        7.4936115048
  H        18.3166543401        6.7664924391        5.7955214988
  C        19.9459411587        5.7205250086        6.5831431916
  H         3.3142250110        8.3062715881       -0.0006512076
  H         2.8302604851        9.1878168652        1.3237527267
  C         4.7557007494        9.8045693612        0.5065167549
  S        13.6652998170        1.6641432462       -4.4393388441
  C        13.3526288461       -0.9861619847       -5.1346278020
  H         8.6177565309        8.5518316229       20.8073254776
  H         7.8895820706        7.9391949571       22.2689991593
  H         7.9598633240        9.6984100942       21.8975498912
  H        20.1622267957        4.7059320726        6.8352135927
  H        20.2689643887        5.7056347474        5.5442199010
  H        20.5555158813        6.4184232139        7.1789344880
  H         5.3138844147       10.2063843890        1.3043412841
  H         5.5195742456        9.5129688156       -0.2174062916
  H         4.2023368308       10.7205798625        0.1429670517
  C        13.9591246146        0.9769131060       -6.0637760590
  N        13.8744440065       -0.3218832316       -6.2269736103
  O        13.0160253588       -2.1437393426       -5.0179960180
  S        14.6821890246        1.9106128262       -7.4228867336
  C        14.1423041780       -0.9416423463       -7.5451880987
  H        14.3829360839       -1.9541106091       -7.2875674660
  H        14.9370376898       -0.5346452328       -8.1456352957
  C        12.8091005274       -1.0842162855       -8.2876647611
  H        12.2904048196       -0.1957159399       -8.2179707553
  H        12.1222154102       -1.9023285466       -7.8920078111
  H        13.0433250965       -1.2346878042       -9.2942671185
