352
 i =    97200, time =    48600.000, E =        98.5540040366
  H        12.1639755737        5.1573983583       31.6292892767
  C        11.1349360311        5.2148406201       31.9244952473
  H        10.6801435638        4.3655696266       31.5832135632
  C        10.4080776891        6.3376522439       31.2207362564
  C        11.1528660649        5.2536874339       33.4393141461
  C        10.6213139257        6.4858408515       29.7166332276
  H         9.3517590050        6.3531562753       31.4170482671
  H        10.8589814676        7.2049157008       31.6428699087
  H        11.4323431020        4.2583560290       33.7392593441
  H        11.9083207056        5.9143215389       33.8779017751
  H        10.1466933246        5.5532775803       33.8867480745
  C        10.1521789350        5.3079513935       28.8943043724
  H        11.6558764665        6.6062088528       29.5785216028
  H        10.0380088137        7.3836752006       29.3953947191
  C        10.6425263654        5.5786401816       27.5007051694
  H        10.2781559297        4.2840281606       29.2490388209
  H         9.0331500418        5.2231484435       28.9517882265
  C         9.7033850272        5.0722046972       26.4116118874
  H        11.5450432219        5.0232588946       27.2865507520
  H        10.8610084028        6.6303335661       27.3879577803
  C         8.4874531618        6.0946614062       26.1545282004
  H        10.0144268923        4.8057092709       25.4510831099
  H         9.4098941036        4.1463619257       26.8842884825
  C         7.3248269290        5.4645452674       25.4386541042
  H         8.1928128791        6.7782761359       26.9676889685
  H         8.8998315903        6.7766188903       25.3885636400
  C         6.8805258357        4.1722673408       26.1446574220
  C         7.7053350602        4.7288654181       24.1834705059
  C         6.1250003368        6.4921148675       25.3376838560
  C         7.1032183987        3.0383432625       25.3403743334
  C         6.3923345470        3.8609456980       27.4405068038
  C         7.6589553497        3.3709923799       24.1616917369
  C         8.1920053159        5.3445206408       23.0276693051
  H         6.4430334803        7.5011830909       25.0098471513
  H         5.7262909127        6.6595311887       26.3091062985
  C         4.8662956201        5.9299019754       24.6272538909
  S         6.5214690563        1.5790344547       26.0238836478
  C         6.1572660160        2.4553681824       27.5296813181
  H         6.3109863124        4.6450163366       28.1927608848
  C         8.0404988291        2.7077283404       23.0233294362
  H         8.3118108988        6.3937744013       23.1050216601
  C         8.5799253149        4.6797216350       21.8890859411
  H         5.1442340671        5.7006853811       23.5388383992
  H         4.5359720961        4.9850949746       25.0512207565
  C         3.6194963177        6.8726691795       24.6862301167
  C         5.6812419002        1.7693922101       28.7725208951
  C         8.5304349111        3.3274421471       21.8054751864
  H         8.0094231244        1.6234611190       23.0409471868
  C         8.9195478225        5.0588691422       20.6152041701
  H         2.8974133968        6.4372571813       24.0242586079
  H         3.8103657739        7.8200718285       24.2817951749
  C         2.7801745599        6.9313905112       26.0120655639
  C         5.6459394363        0.3732965808       28.9729072511
  C         5.3393228637        2.5436410677       30.0238484146
  C         8.9423766468        2.6226762791       20.5325971022
  C         9.1520685029        3.9588061827       19.8152214140
  S         9.4289217799        6.5563689131       19.8124920275
  H         1.7228050941        7.0887696674       25.6923546062
  H         3.1109794336        7.7891414860       26.6492482698
  C         2.8640993781        5.7054380422       26.8651197529
  N         6.0905526602       -0.5911900669       28.0500349076
  C         5.5089728153       -0.2187465738       30.2278806097
  C         4.9780965498        1.9169679461       31.2337610948
  H         5.2528752010        3.6209484744       30.0535517664
  C         7.7381758902        1.9189267583       19.7916658015
  C        10.1625615582        1.7948767223       20.7834350432
  C         9.5635082482        4.3941956549       18.4579896609
  C         9.6700693565        5.7636303801       18.3608721508
  H         2.6839845910        4.7566662541       26.3243267613
  H         3.8162850333        5.5049775468       27.2706864157
  C         1.7536104377        5.6822864681       27.9946305453
  S         6.0593154194       -2.0729046497       28.7451708180
  N         5.7017792000       -1.6311643942       30.2388097287
  C         5.1514590030        0.4939639561       31.3978717002
  H         4.7550225471        2.5794096892       32.0671936178
  H         7.4097328882        1.1170623003       20.4561156209
  H         8.2224861563        1.5154910508       18.8906036030
  C         6.5887617279        2.8055180723       19.3626182871
  H        10.4402555915        1.2971526385       19.9172061196
  H         9.8464328868        1.0700385931       21.4763815542
  C        11.3595571857        2.6014386827       21.3754515021
  H         9.7106601687        3.6727894604       17.6519032439
  C         9.9626707337        6.5584062324       17.1137331259
  H         1.3130364518        4.6846551027       27.9496815036
  H         1.0353975710        6.4661881758       27.8958829130
  C         2.3884099477        5.7888052425       29.3747602214
  C         4.9032576478       -0.2558438172       32.6002942003
  H         6.8047635087        3.5482973161       18.6308494089
  H         6.2842974796        3.2963992533       20.2974641847
  C         5.4405977655        1.9245345440       18.8210844815
  H        11.1207050876        2.9637197125       22.3600194435
  H        11.7420214460        3.3863624378       20.6403194661
  C        12.5019711948        1.6821867445       21.6823264185
  C         9.9837004541        7.9932876273       17.0128263108
  C        10.0254860425        5.8377189816       15.7854596891
  H         2.9794232358        4.9040035799       29.4825998268
  H         3.0319934449        6.6377096422       29.4751711674
  C         1.5715034947        5.5622285675       30.6752481827
  H         5.2248433413       -1.2539883721       32.6081372604
  C         4.6461796311        0.0810004119       33.9003296940
  H         5.1745732379        1.2057565861       19.6449305644
  H         5.7675985868        1.1211306145       18.1286915906
  C         4.2230228228        2.6033454899       18.2570509388
  H        12.2023476678        0.9246458869       22.4235648173
  H        12.8607914334        1.0585435802       20.8199118470
  C        13.6547583233        2.4443483747       22.3538680072
  N         9.8557962952        8.9027646476       18.0461743545
  C        10.4362222703        8.6362516639       15.8867559164
  C        10.3686486561        6.5362987624       14.6481608391
  H         9.5938692593        4.8616415799       15.6927349193
  H         0.6953957115        6.2706129962       30.7270633913
  H         1.1375757440        4.5874231720       30.7848413903
  H         2.0948905315        5.6609976390       31.6532281515
  S         4.4189877079        1.6318308150       34.4641579824
  C         4.5517626430       -1.0177993164       34.9026232362
  H         3.6738632346        3.0541372155       19.0719223549
  H         4.4818308665        3.4939889006       17.6313314984
  C         3.2203958499        1.6681752269       17.5648414954
  H        13.2421275500        2.7611104009       23.3410028501
  H        13.8468620718        3.4108963591       21.9086336900
  C        14.9723064152        1.7382338934       22.5353713104
  S         9.9836409755       10.4839251766       17.5008939886
  N        10.2933963795       10.0255974529       15.9637957963
  C        10.7693293508        7.9473830036       14.6991351490
  H        10.4654455272        5.9848674537       13.6681112893
  C         4.1475184151        0.9031369389       36.0430791817
  N         4.2388767000       -0.4259194877       36.0766160494
  O         4.7638609567       -2.2572659104       34.7438298812
  H         3.8498760276        1.0102283059       16.9301174993
  H         2.6882555539        2.3273479951       16.9860883609
  C         2.3033307454        0.8814900242       18.5120473474
  H        15.0321315895        1.5295257668       23.5898976934
  H        14.9784172759        0.8985491129       21.8706318722
  C        16.2131443284        2.5936997542       22.2460877966
  C        11.1287326054        8.6851353463       13.5205051354
  S         3.9887075580        1.7932991716       37.5282219100
  C         4.2776335246       -1.1989167179       37.3286641511
  H         2.9424070916        0.6284821506       19.3093165002
  H         1.5841463844        1.6098748013       18.9341349149
  C         1.6375657506       -0.2472587851       17.9133016387
  H        16.0559332220        3.4545171266       22.9015954992
  H        16.3346321321        2.8578493787       21.1787067624
  C        17.4384089835        1.8795883466       22.6318909894
  H        10.9639997575        9.7517450010       13.5629322487
  C        11.6614762284        8.2440898736       12.3082325345
  H         3.6864794788       -0.6640884960       38.1287044737
  H         3.8850177608       -2.2032122825       37.2546931750
  C         5.7592657430       -1.2468353935       37.7874554541
  H         1.8774726363       -0.5154863868       16.8505930551
  H         0.5763066238       -0.0021860600       18.0930395915
  C         1.9705759037       -1.5692064409       18.6899201413
  H        17.5356026732        0.9272810369       22.1578535487
  H        18.2531018359        2.4420393784       22.1612886356
  C        17.6304550367        1.8303358361       24.1688798743
  S        12.1921305176        6.7275762037       11.8535522756
  C        11.8204895314        9.3255249091       11.3257557964
  H         6.5052949518       -1.6570980080       37.0601275511
  H         5.9705510560       -0.1667257379       37.9627316100
  H         5.8948774441       -1.7545081382       38.7419712513
  H         3.0042661129       -1.9196394272       18.4168989375
  H         1.1241034767       -2.2309352067       18.4385338596
  H         1.8753759051       -1.2971651996       19.7457713632
  H        18.6578352297        2.1838085997       24.3620414821
  H        17.4998135467        0.8445987209       24.5103215310
  H        16.9011336034        2.4528723633       24.7414638351
  C        12.6021870859        7.4721757867       10.3269000507
  N        12.4227394834        8.7835428942       10.2169652274
  O        11.4487676974       10.5025995416       11.4199405317
  S        13.1506168018        6.7077753351        8.8215224754
  C        12.4462952061        9.5318694241        8.9342867750
  H        12.3831440675       10.6133740128        9.1230015421
  H        13.3194435974        9.3109239936        8.3593010945
  C        11.1064963175        9.2308370261        8.2070175028
  H        10.4118215817        8.8077293526        8.8610246187
  H        10.5886283666       10.0854620605        7.8028842589
  H        11.3465849031        8.4759474581        7.4475180001
  H         2.6593456292        3.5090216283       12.6942106788
  C         3.0203823330        2.4823463754       12.7900205915
  H         2.2338663142        1.8554160791       12.3140896635
  C         4.3770458763        2.2834902726       12.0861930806
  C         2.9731537316        2.1294575228       14.2246982473
  C         4.2352130790        2.4671855265       10.5750868574
  H         4.6908152590        1.2691902888       12.2340229551
  H         5.0980946023        2.8953879433       12.5831004953
  H         3.6601908801        2.9217504575       14.6442687731
  H         3.3311283215        1.1277408682       14.4392684273
  H         1.9610419459        2.1769996426       14.6431710872
  C         4.6836500070        1.3399398784        9.7628300062
  H         3.1785159306        2.5787955698       10.3307821219
  H         4.6399764008        3.4677830691       10.3049431538
  C         5.2748897631        1.7450643555        8.3450380708
  H         3.9955071409        0.5090637270        9.6567974728
  H         5.5178390451        0.8225797699       10.2494602648
  C         6.5362504153        2.6619517062        8.3537136195
  H         4.6002171853        2.1255499489        7.5361987505
  H         5.6942639109        0.7899987765        8.0099953253
  C         7.7584215456        2.0074265939        8.9394070985
  H         6.6875858245        2.8136208828        7.3206832397
  H         6.3178944860        3.6090899818        8.7397801384
  C         9.0310470826        2.8274221544        9.0734418137
  H         7.9745260641        1.1367683332        8.2734344663
  H         7.5584637924        1.5917814447        9.9874056863
  C         8.6165407644        4.1876329074        9.6436983329
  C         9.4995001699        3.5516953861        7.7939416828
  C        10.1185924218        2.1779239608       10.0152297037
  C         8.9782573420        5.2976374654        8.8660622739
  C         7.8856758557        4.6290403510       10.7721537090
  C         9.4864445830        4.8902494901        7.6430370547
  C         9.9677319923        2.9478664980        6.6790140724
  H         9.6465234374        1.5188488588       10.6970598819
  H        10.6484084021        1.5074464553        9.3433012437
  C        10.9602965188        3.0414482577       10.9692420456
  S         8.5611555651        6.8459811882        9.5596428283
  C         7.9012455125        6.0484372927       10.9311910147
  H         7.4708108576        3.9185221127       11.4739106494
  C         9.9036016817        5.4992089242        6.5044426882
  H         9.9430102862        1.8850449435        6.8388509481
  C        10.3818273564        3.4611343848        5.5109442880
  H        10.3105250154        3.5106898362       11.6150493870
  H        11.4589707485        3.8075337430       10.4249524259
  C        11.9093676047        2.2518001772       11.9507677616
  C         7.6550762942        6.8223988583       12.1886721785
  C        10.3497260195        4.8155200277        5.3631153717
  H         9.9167052747        6.5626071933        6.4208201928
  C        10.7637792387        3.0099738636        4.3002428603
  H        12.8892481315        2.7843101137       12.0743337258
  H        12.2264469587        1.2552941774       11.4089135499
  C        11.2370997520        1.8993363888       13.2620550035
  C         7.8909828264        8.2105601403       12.4360498406
  C         7.2165495822        5.9773838370       13.3619990210
  C        10.8234492396        5.4438109523        4.1187595634
  C        10.9859971075        4.0765513872        3.4179995443
  S        11.0844640916        1.4815097065        3.5754950144
  H        10.6042206487        2.7296739794       13.6216937725
  H        10.6100168487        0.9890533497       13.1664900660
  C        12.2180184149        1.5685747630       14.3272551938
  N         8.3861906834        9.1734432481       11.5816559359
  C         7.6697083609        8.7049042665       13.7223780936
  C         7.1250022857        6.5315308962       14.5816163603
  H         7.1078889025        4.8705215010       13.2158707477
  C        12.1322473344        6.2484800911        4.1858727988
  C         9.6382384693        6.2833978909        3.4878989644
  C        11.2108505952        3.5857934782        2.1029553770
  C        11.3945833114        2.2191737042        2.1019851996
  H        13.2139947043        1.4628073902       13.8964546402
  H        11.8696440394        0.5628207524       14.7162577585
  C        12.2072118027        2.4941700551       15.5571672764
  S         8.4648549301       10.5116945829       12.4089401103
  N         7.7687830792       10.0634906122       13.7681348451
  C         7.2521114331        7.9224378417       14.8086789456
  H         6.8356002057        5.8954032044       15.4339931413
  H        11.8562670194        7.1223265034        4.7422064616
  H        12.6032549932        6.5389775859        3.2208889527
  C        13.2218641129        5.3884717054        4.8781917051
  H         9.3202448699        7.0722304061        4.1878464654
  H        10.1082484812        6.9064710449        2.7083295983
  C         8.4602269965        5.4137762990        3.0192176912
  H        11.1147799199        4.2654678343        1.2553596539
  C        11.6347729416        1.3186740402        0.8498617397
  H        12.1499196077        3.5206708895       15.3632791674
  H        11.4429222738        2.1858982475       16.1987743479
  C        13.4399587808        2.3479122631       16.4109891699
  C         7.0143078062        8.5957683046       16.0753033082
  H        12.8861143539        4.9448438802        5.8177051832
  H        13.4683415571        4.5911826584        4.2180481983
  C        14.4947111411        6.1256293719        5.1915265774
  H         7.9394854373        5.1361849279        3.9244605203
  H         8.7550772144        4.5034950904        2.4626467208
  C         7.4519466232        6.1991643993        2.1864612090
  C        11.6400841305       -0.1256261674        0.7683822442
  C        11.9377239096        2.0236023359       -0.3958042517
  H        14.2653485584        3.0932076500       16.1781274832
  H        13.8020290865        1.3382396071       16.2318258705
  C        13.1991085755        2.6457683524       17.8585085456
  H         6.9271424362        9.6785489258       15.9511620999
  C         6.6418363374        8.1937705273       17.3269842657
  H        14.1339982732        6.9864203033        5.7640821904
  H        14.8465172659        6.5672995132        4.2102496250
  C        15.4345285173        5.2146050708        5.9017962552
  H         6.9713677668        6.9707145211        2.8297488031
  H         7.9152707669        6.6031835954        1.3703101316
  C         6.4455753559        5.2401548426        1.6445969087
  N        11.2878087194       -1.0233500720        1.7636075291
  C        12.1189339088       -0.7880042593       -0.3709802984
  C        12.4521736120        1.3517107582       -1.5025684116
  H        11.9492899032        3.1462525854       -0.3936907022
  H        12.2408748062        3.0864858910       18.0685827218
  H        13.9533466535        3.4444952677       18.1813083772
  H        13.1654381918        1.7486968264       18.4840772809
  S         6.5360030141        6.5842155531       17.9192175155
  C         6.5149844641        9.2243544480       18.3881913132
  H        15.0099348224        4.8080986074        6.8585082016
  H        15.4669616186        4.3398177443        5.3135912114
  C        16.8522380175        5.6845878709        6.0433360470
  H         6.4003352111        4.3794150601        2.2916078626
  H         6.7220500017        5.0187383310        0.5859851385
  C         5.1047913177        5.8811637393        1.6395339443
  S        11.4499237572       -2.5027798214        1.1850893281
  N        12.0782011100       -2.1422430080       -0.2389888038
  C        12.5918044294       -0.1520171794       -1.5334988070
  H        12.7404801960        2.0148436856       -2.3144781793
  C         6.2541316557        7.3158159022       19.5050822997
  N         6.0951192736        8.6687299594       19.4920591519
  O         6.6478182059       10.4419270467       18.2495626687
  H        17.3813161136        5.6335770838        5.1336064417
  H        16.7384029788        6.7298087259        6.3511076988
  C        17.7216282971        4.8935558438        7.0706674852
  H         4.4143593375        5.0625992255        1.3465994010
  H         4.9380557687        6.1630560310        2.6136799496
  C         4.7703293047        7.0092788147        0.5881528567
  C        12.8671489957       -0.9196005406       -2.7370182977
  S         5.9507713139        6.4766641419       21.0496016311
  C         5.9432775389        9.4497339358       20.7562565868
  H        17.0378331810        4.4714808499        7.8214902187
  H        18.1535362804        3.9952067198        6.6623217427
  C        18.8650095919        5.7266993685        7.6459636462
  H         4.1027928418        6.5758850898       -0.1568497480
  H         5.6923685913        7.4111562722        0.0412224317
  C         3.9671083450        8.2044657487        1.2118954000
  H        12.6736156863       -1.9599654566       -2.5154153573
  C        13.3567429762       -0.5878749428       -3.9849918975
  H         5.1702254757        8.9691508360       21.4126905578
  H         5.5591390607       10.4498346569       20.4893937861
  C         7.4409472653        9.5816553896       21.2411391185
  H        19.2757330735        5.3649007293        8.5829854838
  H        18.5493295908        6.7323826379        7.8088731986
  C        19.9789513234        5.8071616788        6.6833468434
  H         3.3936616885        8.7563020615        0.4885495202
  H         3.1650590475        7.7765965773        1.7855051656
  C         4.7191306525        9.0945334337        2.1805149885
  S        13.8820760843        0.9794274505       -4.5556414105
  C        13.4901039083       -1.7049934258       -4.9746875004
  H         7.6664059926       10.5525440107       21.7401233919
  H         8.2531396614        9.5468906634       20.4977382368
  H         7.5564110781        8.7956422186       22.0303328746
  H        19.7362864115        6.3896707511        5.8137282482
  H        20.8218645885        6.3874239139        7.1502279248
  H        20.4646930436        4.8481395995        6.4083703676
  H         4.2355858399        9.9237395781        2.5966813434
  H         5.2777139570        8.4906722325        2.9326252939
  H         5.5294837000        9.5971388938        1.5665352935
  C        14.2168479631        0.1564147001       -6.0412482633
  N        14.0877653279       -1.1974832096       -6.1043344969
  O        13.0904296623       -2.8613587532       -4.8066616398
  S        14.9906957499        0.9355390025       -7.4629373645
  C        14.2101652732       -1.9973636168       -7.3354189514
  H        14.4409284503       -3.0550936222       -7.1379496985
  H        14.9757574066       -1.5644576629       -8.0012901023
  C        12.9047006818       -1.8697582556       -8.0742411969
  H        12.1394281710       -2.4071354324       -7.5586795339
  H        13.0254001866       -2.3304008866       -9.0334269966
  H        12.5215902125       -0.8646319726       -8.2587834488
