352
 i =    43900, time =    21950.000, E =        99.7331968587
  H        10.7337073260        4.4402684762       31.4476761545
  C        10.5595465383        5.4863505786       31.8278210102
  H         9.4619812599        5.5438191476       31.6642446695
  C        11.2258175170        6.6292468089       31.0558534923
  C        11.0901523848        5.3259568429       33.3411708709
  C        11.5757650387        6.1017556458       29.7439641229
  H        10.5860586258        7.4625840034       31.0448900504
  H        12.0869752474        6.9014460443       31.5474518504
  H        11.8332564826        4.5417610787       33.3361719337
  H        11.5223096788        6.3050474756       33.6557451162
  H        10.2686177458        5.0130405308       34.0029770043
  C        10.3114328364        5.9907512779       28.8184956658
  H        12.0310435926        5.1268727762       29.9286679305
  H        12.4440229732        6.6551669583       29.3277629524
  C        10.7327886627        5.7065128540       27.3541924104
  H         9.6132378773        5.1447932954       29.0915891526
  H         9.7476087347        6.8127064129       28.8636996235
  C         9.7380280212        5.1218346344       26.4331119373
  H        11.6950636534        5.0966649390       27.2708053833
  H        11.1230052372        6.6485624981       26.8984277307
  C         8.5083472075        5.9861306264       26.0355596696
  H        10.3163535438        4.8830899858       25.5496756036
  H         9.4428860539        4.2384436020       26.9388958838
  C         7.3845656802        5.1555511431       25.3449099896
  H         8.0430391191        6.4494080311       26.9326187718
  H         8.8189993121        6.8190881236       25.3381914905
  C         7.0935451871        3.8051330552       26.0268404586
  C         7.8397748621        4.4300386561       24.0966500426
  C         6.1196600528        6.0224850785       25.0387850501
  C         7.3699810919        2.7165150176       25.2824249410
  C         6.6020557935        3.5473797829       27.2905874062
  C         7.7590846394        3.0661503110       24.0076383893
  C         8.2943654965        5.0527672348       22.9107820129
  H         6.2278135071        6.8161523545       24.3607175223
  H         5.9986806286        6.6740729616       25.8861652637
  C         4.8276263226        5.2944429443       24.7919521649
  S         6.7971223829        1.2895633993       26.0325760927
  C         6.3411929918        2.1691259286       27.4004064107
  H         6.5168266604        4.3550662487       27.9592850325
  C         8.0975606622        2.4672652595       22.8700044592
  H         8.3411160298        6.1135146527       22.9809676093
  C         8.6116793780        4.4036031353       21.7495965401
  H         4.9374965595        4.7094951105       23.7883949263
  H         4.7389810978        4.6417653047       25.5830856177
  C         3.5644765346        6.1504132656       24.7847091996
  C         5.9544906993        1.4989521281       28.6897933383
  C         8.4927716761        3.0749545371       21.6567753124
  H         7.9678619819        1.3750909421       22.7257882108
  C         9.0329014845        4.7635919370       20.4675185156
  H         2.9175905874        5.4326469240       24.2521477782
  H         3.5724894503        6.9797908512       24.0544026598
  C         3.0103865166        6.5067277582       26.1618167162
  C         5.9640084418        0.1225874029       28.9553290191
  C         5.4286750197        2.3114442439       29.7976879648
  C         8.8331223483        2.3129269111       20.4115101739
  C         9.1351116396        3.6451408293       19.6968936305
  S         9.2780354953        6.2090305523       19.6857237359
  H         2.1400369827        7.1729122090       26.0237516857
  H         3.8331947952        6.9481164669       26.7426567575
  C         2.4323972924        5.3080253596       26.9429705696
  N         6.3502538574       -0.8311761730       28.0101923810
  C         5.6986217892       -0.4370460649       30.2340476949
  C         5.0126039022        1.7913839312       31.0355755681
  H         5.3785080375        3.3442556172       29.6306710790
  C         7.6317674382        1.6170391928       19.7617529709
  C        10.0704250653        1.3316675990       20.5684659948
  C         9.6245833504        4.0235056784       18.4635640878
  C         9.6809952134        5.3830496079       18.2675980104
  H         1.8842930632        4.8070882381       26.1723010112
  H         3.2674387137        4.6287281233       27.1269623756
  C         1.7383209693        5.5999842228       28.2842985817
  S         6.3700832148       -2.3025771241       28.7354415942
  N         5.9040799404       -1.8602540354       30.1942783658
  C         5.2704035007        0.3463300486       31.3696244070
  H         4.6218311993        2.3903850216       31.8444441424
  H         7.1974912246        0.9774967624       20.5445059263
  H         7.9117381869        0.9421952348       18.8922655811
  C         6.3953886615        2.4953100085       19.4629841068
  H        10.3025899191        0.9807868924       19.5903821658
  H         9.8217851779        0.4782151197       21.2607439997
  C        11.3322197652        2.0767342692       21.0205030299
  H         9.9278739050        3.2404062578       17.7341494489
  C         9.9521629587        6.1307343308       16.9953110438
  H         1.1071861551        4.7412475082       28.6066833833
  H         0.9348747846        6.3847605611       28.1767691799
  C         2.7962015674        5.7172887860       29.4142769752
  C         5.1102255861       -0.3869310408       32.6526150622
  H         6.7857415953        3.3026971029       18.7911247716
  H         5.9906610154        2.8531177758       20.3980128545
  C         5.2591779902        1.6449082004       18.7227156748
  H        11.0128774795        2.5416651831       22.0215557473
  H        11.5492530875        2.8957287564       20.3202260874
  C        12.5224271013        1.1310610295       21.3820246929
  C         9.9319302518        7.5723565769       16.8071728662
  C        10.2323093202        5.3779226191       15.7607478053
  H         3.3480710225        4.8098066836       29.6141634527
  H         3.4652931465        6.4483886165       29.1976426017
  C         2.2395640440        6.1624038575       30.8008141907
  H         5.3592762774       -1.4796525633       32.6794166180
  C         4.7239949699        0.0515913008       33.8904317507
  H         4.7333430051        0.8634205922       19.3300600146
  H         5.8504264211        1.1017970438       18.0150539767
  C         4.2700081284        2.5177716474       17.9836940408
  H        12.3773644688        0.5137569110       22.2091997064
  H        12.7294750536        0.4293163605       20.6122924880
  C        13.7464661634        2.0725730800       21.7968175676
  N         9.5979093511        8.4003926629       17.8343724680
  C        10.2969422839        8.1785289211       15.6080989793
  C        10.2944395469        6.0344158303       14.5279611160
  H        10.1667549901        4.3081718962       15.7813696611
  H         3.1290190006        6.4931492293       31.3082093356
  H         1.4705749174        6.9401201431       30.6285471375
  H         1.7272254558        5.3441698947       31.2956647708
  S         4.3377757348        1.6555838297       34.4140829312
  C         4.7656914623       -0.9900361433       35.0257126577
  H         4.1210091931        3.4876220807       18.4916498884
  H         4.5819320522        2.7607799870       16.9915608896
  C         2.7974500528        1.9654620488       18.0339405720
  H        13.3435854592        2.9270789963       22.3152752226
  H        14.0526707618        2.4424288104       20.8513655070
  C        14.8200666314        1.4281692227       22.6160132979
  S         9.8330797742        9.8500631966       17.2368645638
  N        10.3831348143        9.5389129427       15.7761789981
  C        10.5321232756        7.4613354433       14.4389997877
  H        10.2884548459        5.4537477873       13.6191880568
  C         4.2306208365        0.9380220582       36.0716645030
  N         4.3317120221       -0.4077477032       36.1593560738
  O         5.0165763715       -2.1493552986       34.8621921649
  H         2.0792412602        2.6653217213       17.6288805978
  H         2.5119163145        1.7257598104       19.1250324477
  C         2.7479623463        0.6641370360       17.2463239073
  H        14.3660934071        0.7752189365       23.4187281857
  H        15.3024723644        0.6575225317       21.9695465637
  C        15.8105524570        2.4116749418       23.1119735525
  C        10.7557324062        8.1791374564       13.2327506625
  S         3.9698283800        1.9529369007       37.4240181492
  C         4.2282538026       -1.1098526448       37.4582588048
  H         2.0513809846        0.7594557594       16.4162468923
  H         3.7163721515        0.3256509551       16.8621713778
  C         2.0534251111       -0.4933995604       18.0165149226
  H        15.3961101602        2.8356717878       24.0435802199
  H        16.1765553864        3.1994042198       22.4390747214
  C        17.1610838742        1.8596679480       23.6969091069
  H        10.5051651698        9.1954570863       13.2102378985
  C        11.3075412623        7.8396771440       12.0129253794
  H         3.4892649778       -0.7362449691       38.1311241353
  H         4.0213733179       -2.1136147456       37.1570667723
  C         5.5420887183       -1.1459051505       38.1722616415
  H         0.9960815703       -0.2254277867       18.1783972697
  H         2.4464275672       -0.6463443994       18.9484921106
  C         2.1265176213       -1.8420111947       17.2731152222
  H        17.5014973368        2.5629423654       24.4949356864
  H        17.0582906130        0.8649865345       24.0722312924
  C        18.2263992836        1.8934721250       22.6541246416
  S        11.9287551541        6.3585579604       11.5214541752
  C        11.5758100311        8.9396276443       11.0844581730
  H         6.0523915969       -2.0276141650       38.5344936595
  H         6.3048000967       -0.8844787456       37.4819604600
  H         5.6008298548       -0.4930399733       39.0665908531
  H         3.0309059509       -2.2528832946       17.5554387808
  H         2.0637182625       -1.7818872512       16.1913636345
  H         1.3503628255       -2.5736302548       17.6318154522
  H        18.8255024880        0.9701864450       22.5719429963
  H        18.9112697611        2.7161730354       22.7723049691
  H        17.8189604487        2.0821642791       21.6166009057
  C        12.2479568192        7.0351880784       10.0049095562
  N        12.0700393149        8.4219281397        9.9545254676
  O        11.1883642641       10.1112506309       11.2261547358
  S        12.9041615144        6.2121760088        8.6579205232
  C        12.0074855056        9.2113821050        8.7537348916
  H        12.2517601709       10.2173553803        8.9843819116
  H        12.7773814675        8.9049435456        7.9882072214
  C        10.5719649556        9.2027183673        8.1471524508
  H        10.1499423741       10.2082047025        8.3651121134
  H        10.5028076838        9.0259939604        7.0769689947
  H         9.9465765930        8.5732828238        8.7483347745
  H         5.4149401251        2.2525329060       12.3584983692
  C         4.4452840114        2.5559879720       12.6780464398
  H         4.6155347625        3.6419634491       12.5739007836
  C         3.5259859896        2.1914559400       11.4763981372
  C         4.0695072962        2.2742907054       14.1461571947
  C         4.1497114938        2.2970483680       10.2156341921
  H         2.7067255204        2.9201353952       11.4890518227
  H         3.0572654104        1.2333434740       11.5058414228
  H         3.5366427751        3.0941286159       14.5959632841
  H         4.8792600400        1.8906928281       14.7383315159
  H         3.3538436774        1.4868936637       13.9569750974
  C         4.6550507182        1.0824705577        9.4738808670
  H         3.3335278269        2.7412229390        9.6162460005
  H         4.7565613557        3.1590112444       10.3286823945
  C         5.5243859827        1.3133365044        8.2490277315
  H         3.8515837112        0.4208919170        9.2058676123
  H         5.3368314763        0.6435708212       10.2112668264
  C         6.6007895340        2.3618587186        8.3970875954
  H         4.7623128716        1.6829364326        7.5875895545
  H         5.8862579574        0.3645612828        7.7883335798
  C         7.9626411288        1.7598980779        8.8726935396
  H         6.6249527004        2.7954890410        7.4318380771
  H         6.3816607056        3.1239527237        9.0380161632
  C         9.0548217053        2.7773432640        9.2656764443
  H         8.3439430593        1.1334552694        8.0726299366
  H         7.7946253806        1.1369415476        9.7559880265
  C         8.4799629986        4.0073482409        9.9107710396
  C         9.4743682039        3.5208050477        8.0366278459
  C        10.1487030408        2.1233141944       10.1014950688
  C         8.6515525488        5.1185411830        9.1287939695
  C         7.9490425605        4.3299491183       11.1557552220
  C         9.2993111674        4.8298305942        7.9315409241
  C         9.9989068633        2.9665003717        6.8754868885
  H         9.7060642250        2.0267794755       11.0895434660
  H        10.4275751889        1.1273287535        9.7955143486
  C        11.3472484956        2.9954702519       10.2921485599
  S         8.1544518400        6.5394366102        9.8607762457
  C         7.7580743426        5.7054054845       11.2535415939
  H         7.9864797563        3.5540005315       11.9427977890
  C         9.7169995763        5.5621343635        6.8344008687
  H        10.1801743004        1.8807701620        6.9471871555
  C        10.3158108516        3.6099457147        5.7221938300
  H        10.9804594761        3.9086063451       10.8341516650
  H        11.7519601519        3.3102196219        9.3435216682
  C        12.4359890063        2.3443662598       11.1872854235
  C         7.2915003931        6.4737880660       12.4725120529
  C        10.2497529952        4.9660057231        5.6727572912
  H         9.5560218855        6.5755440505        6.7347587596
  C        10.8547177129        3.2608287676        4.4892371726
  H        13.2800557006        3.0601160907       11.2092357386
  H        12.8820936205        1.4128485537       10.8218224541
  C        12.0264598352        2.2089308820       12.6371982847
  C         7.4180879363        7.8356264754       12.8017445648
  C         6.8075083993        5.6991464567       13.5886250066
  C        10.6734792103        5.6633873723        4.3334221999
  C        10.9531556490        4.3172593273        3.6405219924
  S        11.3813198147        1.8476389652        3.7661320446
  H        11.6968774098        3.1648226034       13.0783347856
  H        11.2426557198        1.4196057330       12.6699837477
  C        13.1715773136        1.8067819952       13.5411484454
  N         7.8405761510        8.8031858293       11.8964006769
  C         7.2392065478        8.3383335819       14.0600871377
  C         6.5752508316        6.1806905511       14.8662610974
  H         6.6916024687        4.5960090925       13.4937835969
  C        11.9986555353        6.4169501544        4.4195560415
  C         9.4607461137        6.4153691695        3.7603560476
  C        11.4907180387        3.9372892671        2.3816483114
  C        11.6430018617        2.5826800846        2.2830453739
  H        13.9297065638        2.6087815182       13.7695166016
  H        13.8332652659        1.1022622661       12.9985835172
  C        12.5769738222        1.2019891756       14.7501872568
  S         7.9698262665       10.2827353425       12.6427331196
  N         7.3653415574        9.7543162134       14.0290290341
  C         6.8357959199        7.5887105241       15.1672759596
  H         6.3956810033        5.5138456178       15.6645788179
  H        11.9356794475        7.0859474515        5.2433497742
  H        12.2712244011        6.9754997709        3.5031111000
  C        13.2720470742        5.6316382072        4.6922345893
  H         9.0870975042        7.0837848465        4.5817059597
  H         9.7272896405        7.1093859232        2.8736869758
  C         8.2680412786        5.4751483806        3.3635605306
  H        11.7104405276        4.6704155236        1.6848730878
  C        11.9448520247        1.7999681661        0.9693154591
  H        11.5454626387        1.6012785295       14.9010222731
  H        12.2659717090        0.1373044588       14.5669027588
  C        13.3203774410        1.4696908036       16.1011462904
  C         6.7970343971        8.2509420981       16.4318062300
  H        13.0286755148        4.9461048247        5.5710076809
  H        13.5300237830        4.8802934524        3.8947622212
  C        14.5802634039        6.3718683172        5.0095832865
  H         7.8396005641        4.8652778689        4.2157894987
  H         8.6006493212        4.7077307240        2.6752144563
  C         7.1009628583        6.1877307559        2.6882839897
  C        11.8803753407        0.3874358261        0.8016668055
  C        12.3813309511        2.6091235986       -0.2253854779
  H        14.2882456322        1.9301242497       16.0359660455
  H        13.5459950135        0.4676171096       16.4386820396
  C        12.3868394549        2.2737127174       16.9683066500
  H         7.0279967353        9.3014828328       16.3913088200
  C         6.5061795245        7.7584773489       17.7224713393
  H        14.4078994997        7.0248400953        5.9360950725
  H        14.7720060007        7.0172257473        4.1167542563
  C        15.6707899535        5.3576093741        5.3046194182
  H         6.9685152560        7.1049624896        3.3081233272
  H         7.5396672089        6.5485368655        1.7357860154
  C         5.9858071490        5.1906732722        2.2818768893
  N        11.5016331652       -0.6237264857        1.7063556285
  C        12.1524691408       -0.1353467974       -0.4419273243
  C        12.5778113078        2.0305122676       -1.4006795681
  H        12.5280493451        3.6720194394       -0.0910727408
  H        11.5249948312        1.6518574280       17.2885154329
  H        12.0298765068        3.0837952916       16.5043292180
  H        12.8630690780        2.6216014035       17.9006322671
  S         6.1992975118        6.2306057600       18.3156524790
  C         6.5376628748        8.7622746085       18.8739921358
  H        15.2505799682        4.8421893265        6.1569857387
  H        15.7581626678        4.7022242088        4.4444970940
  C        17.0197026845        5.9928830038        5.7192953741
  H         5.7310842543        4.6579854588        3.2380069787
  H         6.4118438360        4.4158052579        1.5328365230
  C         4.8288190550        5.7900842350        1.4829278108
  S        11.6010283609       -2.0666660516        1.0159076578
  N        12.0318280876       -1.5027755126       -0.4682656117
  C        12.4231990794        0.5682770472       -1.5854722772
  H        12.9601413179        2.6504838926       -2.1802057721
  C         6.0367044499        6.8598011167       19.9030831506
  N         6.1346710983        8.2067177363       19.9919795872
  O         6.8076180467        9.9669469732       18.7238410791
  H        17.6816371428        6.0317625300        4.8572403596
  H        16.8957860933        7.0239366838        6.1397316464
  C        17.7361630957        5.2497590620        6.8557882423
  H         5.2685269435        6.2407675815        0.5893969603
  H         4.0164930079        5.0885163186        1.1981669949
  C         4.1714324408        6.9574592005        2.2345461797
  C        12.7191699280       -0.1545903992       -2.7864302214
  S         5.6629109527        6.0193965869       21.4926948134
  C         6.2526137530        8.9824526227       21.2610817272
  H        16.9877770944        5.0830315307        7.6371476763
  H        18.0976578732        4.2557532664        6.5392394476
  C        18.9484457099        5.9438549754        7.4668664433
  H         4.2767199873        6.8152006240        3.3272371877
  H         3.0828394416        6.9067928898        2.1241860916
  C         4.6724640427        8.3363163595        1.9287695012
  H        12.4236009358       -1.1309187422       -2.8324925333
  C        13.2432310279        0.2584905884       -3.9865832882
  H         5.6456307005        8.5796499908       22.0628116248
  H         5.8505026396        9.9590021503       21.0751499942
  C         7.6521016499        9.0281211332       21.7283390937
  H        19.4181093647        5.2251764631        8.1185826388
  H        18.7199364518        6.8435388164        8.0692005012
  C        19.9002639550        6.2175759655        6.3509018406
  H         5.0685893594        8.7123961045        2.8991116887
  H         5.4327056429        8.2900397526        1.2553059590
  C         3.6947972919        9.3932037854        1.5023831703
  S        13.8507806154        1.7824189691       -4.3923303337
  C        13.3608271817       -0.7734159041       -5.0222522118
  H         7.7722902900        8.4106678943       22.5844184705
  H         7.9164198446       10.0386484601       22.0791957591
  H         8.3701291518        8.7485909047       20.9506924751
  H        19.9581081233        5.3278104239        5.6706875599
  H        19.4847619985        7.0550583469        5.8458464179
  H        20.9319046357        6.3740589250        6.7023096729
  H         4.1376380155       10.2068837777        0.9734559659
  H         2.9557015807        9.0313899959        0.8696928375
  H         3.3334512712        9.7958237742        2.4533785040
  C        14.1931220561        1.0260825703       -5.9711625558
  N        13.9293874786       -0.2824652429       -6.1180898448
  O        13.1867149205       -1.9899532004       -4.7473476116
  S        15.0477523955        1.8260946588       -7.2614062714
  C        14.1168589421       -1.0930843260       -7.3364504171
  H        14.0110504306       -2.0879914655       -7.0076209549
  H        15.1551844342       -1.0017962737       -7.6742848657
  C        13.1899045310       -0.8293037195       -8.4812836352
  H        12.2235067454       -0.5419910534       -8.0634532107
  H        12.9119389842       -1.7928097483       -9.0067074266
  H        13.5874976861       -0.0950934456       -9.1507859388
