352
 i =    68100, time =    34050.000, E =       100.1734235683
  H        12.3067969588        6.9097076138       32.3430228705
  C        11.4747505073        6.1802407243       32.4015155943
  H        11.8236065413        5.1693272815       32.2167142144
  C        10.5580686038        6.5579871491       31.3428178704
  C        10.9074021286        6.4312113622       33.8457985949
  C        11.0548129647        6.5121858940       29.9204403045
  H         9.5933722631        6.0308983295       31.3570095562
  H        10.2885881643        7.6214242823       31.3611019263
  H        10.2713502059        7.3114777861       33.9103065917
  H        10.4299523814        5.5336635313       34.1445219794
  H        11.7167494600        6.5363005473       34.5425530009
  C         9.9916867473        6.4705086354       28.7789006893
  H        11.5819159288        5.6205249913       29.8567445360
  H        11.7336288526        7.3727020269       29.6822049722
  C        10.5398443913        6.0439636206       27.3838464286
  H         9.1517512933        5.8885064166       29.1319010139
  H         9.6905804201        7.5003748875       28.7304653495
  C         9.4479498281        5.4256262222       26.6054963480
  H        11.3162314850        5.3185649523       27.4679316221
  H        10.9599859444        6.8461118675       26.8876461914
  C         8.2523442847        6.3031297318       26.1826270634
  H         9.7088367764        4.9048042294       25.7692401020
  H         9.0396021444        4.6879379445       27.3215544597
  C         7.0903365666        5.5165988860       25.3962193899
  H         7.8467009396        6.6882863074       27.1129591987
  H         8.5622799972        7.0395689842       25.5127887786
  C         6.7874370192        4.1314430672       26.0551066603
  C         7.5923836536        4.8321836650       24.1486765111
  C         5.8351691823        6.3659867358       25.1885939651
  C         7.0985523749        3.0344574090       25.2269978508
  C         6.0945994378        3.6895229193       27.1855331107
  C         7.6213195519        3.4639418874       24.0529954300
  C         8.1106588633        5.5163515632       22.9928618052
  H         6.0641528162        7.3572251439       24.7528058288
  H         5.4235260150        6.4972203990       26.1390889511
  C         4.8661829332        5.6456297644       24.2606276440
  S         6.7663717869        1.5603608695       25.9333079006
  C         6.1965136773        2.3496086075       27.2611695785
  H         5.7510668819        4.4387163552       27.9053857735
  C         8.1525793444        2.9129304164       22.9343584976
  H         8.0107336079        6.5965228955       23.1497615654
  C         8.5387461806        4.9180923087       21.8489569656
  H         5.3619248181        5.5145047024       23.2862927363
  H         4.7064585221        4.6597854294       24.6739408281
  C         3.4738718902        6.4234182465       24.1215301108
  C         5.9079312998        1.6068729291       28.4969983549
  C         8.5384612777        3.5563410459       21.7566513073
  H         8.2149197761        1.8715408851       22.8318645917
  C         8.9118795513        5.2713556449       20.5268966814
  H         2.8871301961        5.7373694904       23.5390472500
  H         3.6187100289        7.4224258167       23.6350320782
  C         2.6164621783        6.6360950074       25.4189468084
  C         5.8631198978        0.2018838285       28.7644144893
  C         5.5892119647        2.4728707380       29.6664816123
  C         9.0184747835        2.7829003385       20.5514619671
  C         9.1689785429        4.1290709237       19.7642638352
  S         9.0195569393        6.7851091035       19.6895719650
  H         1.7531235828        7.1338046443       25.1084938660
  H         3.1877960012        7.0614872800       26.2174440875
  C         2.1257830716        5.3515500033       26.0558971033
  N         5.9812072633       -0.7576776441       27.7261580400
  C         5.5979552264       -0.3026769054       29.9864765815
  C         5.3462477678        1.8934874508       30.9138617706
  H         5.4195316577        3.5147192269       29.5523653341
  C         7.9076568695        1.8887579681       20.0037053349
  C        10.2489700365        1.8967093386       20.8259916474
  C         9.5927897477        4.5432552204       18.5258366786
  C         9.4890645771        5.9055186034       18.3343364611
  H         1.4170105688        4.8106864286       25.4006878213
  H         2.9086885428        4.6756511294       26.3688322272
  C         1.2982185075        5.6299634163       27.3133711422
  S         5.9459442251       -2.2191671537       28.3967912281
  N         5.6101777924       -1.6988830229       29.8982838410
  C         5.3516368189        0.4333818998       31.1588924286
  H         5.1909593088        2.4838015935       31.7821748224
  H         7.5887857954        1.3130886013       20.8742429550
  H         8.2820977431        1.1382843893       19.2847566737
  C         6.7985815825        2.6140917244       19.2906252506
  H        10.2422649277        1.0772616588       20.0965353566
  H        10.2108184568        1.4722305098       21.8467441649
  C        11.6548633526        2.5794942293       20.7153589795
  H         9.8885960747        3.8316053166       17.8207461366
  C         9.8639332124        6.6115183535       17.0722463346
  H         0.3722218753        5.0127029608       27.3430592228
  H         0.8717575015        6.6454067912       27.3050327012
  C         2.2968300479        5.5588406427       28.5764313240
  C         5.1461831686       -0.3634341498       32.3397567912
  H         7.2949671708        2.8320551212       18.3078074917
  H         6.4324434691        3.4781286346       19.8342771542
  C         5.5856465536        1.6650864009       19.0243416485
  H        11.5629778307        3.3352343018       21.4801432937
  H        11.6936233310        3.1301414079       19.7038089034
  C        12.8205653717        1.6321765953       20.9212074175
  C        10.0855172384        8.0384802828       16.9683574060
  C        10.0892612103        5.8732055642       15.7994152823
  H         2.9257829951        4.6227792543       28.6942571922
  H         2.9284852960        6.3946972230       28.4379308009
  C         1.4654214891        5.4929872146       29.8753929799
  H         5.4306652106       -1.3949990252       32.2134824918
  C         4.8218262793       -0.0238103156       33.6133654884
  H         5.1857813158        1.3113565538       19.9374872298
  H         5.9965433791        0.8270551798       18.5055245615
  C         4.5636702592        2.2609658199       17.9651631742
  H        12.4768230460        0.9756386433       21.7096678999
  H        12.9308665975        0.9135785960       20.1103047805
  C        14.1098746011        2.3784021885       21.1884761555
  N         9.8409471239        8.9798495447       17.9373174805
  C        10.3319506511        8.6862531161       15.7599805664
  C        10.4208606348        6.4715658339       14.5996675555
  H         9.9537495749        4.8326683621       15.9059570862
  H         0.9532497505        4.5153661411       30.0667034643
  H         1.9556031072        5.8622211805       30.8085593176
  H         0.6832299720        6.2483990088       29.6945223860
  S         4.3836063922        1.5664611274       34.1774507535
  C         4.8623905689       -1.0832022512       34.6924106568
  H         4.5409197683        3.3808115248       18.0461836264
  H         4.8886902658        2.0855583183       16.9707045822
  C         3.2008713201        1.5724250185       18.0341003234
  H        14.2363229954        2.9385584649       20.2268181479
  H        14.8658354615        1.6212322701       21.1439931923
  C        14.1295540675        3.0413584044       22.5999909817
  S        10.0884689554       10.4685000997       17.3271363216
  N        10.5159945571       10.0298576489       15.8409411123
  C        10.6205881307        7.9543457130       14.5469111938
  H        10.6036453758        5.8452389333       13.7146148253
  C         4.1799822944        0.8124400560       35.7345995215
  N         4.4047377484       -0.5063892248       35.8409830910
  O         5.1766873919       -2.2423633213       34.5110726171
  H         2.4498699126        2.2010653679       17.6033231296
  H         2.9247879543        1.3170684182       19.0231864187
  C         3.1034330795        0.3025075681       17.2222906979
  H        13.2188068438        3.6539322982       22.7121712564
  H        13.9713603159        2.2758351335       23.3314011918
  C        15.3648811412        3.8461654089       22.9689347936
  C        10.9611254812        8.6552843323       13.3345454659
  S         4.0337400099        1.7397236551       37.2227079611
  C         4.4863502294       -1.2379211446       37.0948780083
  H         2.8850320467        0.6177447399       16.2415032438
  H         4.1628487358       -0.1237380557       17.1089533016
  C         2.1665627989       -0.7390041050       17.7920222087
  H        15.4269363799        3.7958123584       24.0538209276
  H        15.2164719603        4.8719290367       22.7429923823
  C        16.7289288582        3.3958365638       22.3661511498
  H        10.6944561431        9.7839174906       13.5286735637
  C        11.4806821400        8.3395518254       12.1187278382
  H         3.7284098244       -0.8150788968       37.7935225414
  H         4.1203407375       -2.2851672903       36.8042970662
  C         5.9328280015       -1.2171057017       37.6378390130
  H         1.2300378547       -0.5256709228       17.4499042183
  H         2.1624700311       -0.6882690901       18.9258393996
  C         2.5235657616       -2.2532192326       17.4176975990
  H        16.5959745359        3.3761050661       21.2865219945
  H        17.5322552396        4.1455815768       22.4439795785
  C        17.3619928601        2.0162876333       22.7489139246
  S        12.0672476448        6.7822395460       11.6353603295
  C        11.4461943314        9.3904822254       11.1107014566
  H         6.1200407667       -0.1829011545       37.8102469057
  H         6.0313288605       -1.7190290043       38.6089897337
  H         6.6528756209       -1.6151971430       36.9665613157
  H         2.2013328667       -2.4455203795       16.4150007923
  H         2.0598148932       -3.0789596661       18.0305984995
  H         3.6168570532       -2.4753017358       17.4921495436
  H        16.5657749019        1.3397660257       22.6918537516
  H        17.8341494327        2.0287573957       23.7321468824
  H        18.1404042561        1.7311571688       22.0897177026
  C        12.4023217047        7.5480876192       10.1124393775
  N        12.1561394161        8.8965133657       10.0133800843
  O        11.1205724123       10.5508636134       11.3325076482
  S        13.3697535403        6.7360625923        8.9232220296
  C        12.2904240174        9.7288785412        8.7610749844
  H        12.5284946326       10.7971426103        8.9529057732
  H        13.1994757248        9.3017296582        8.2243262314
  C        11.1009076743        9.6375333938        7.7894286455
  H        11.0382822963        8.7462342322        7.2333475052
  H        10.1655117277        9.8567633400        8.2868570015
  H        11.2510937126       10.5025099248        7.0826093648
  H         4.6317123640        1.6725310766       12.3506113671
  C         3.8826801539        2.4673937813       12.3526355843
  H         4.4902373859        3.4056269340       12.3125187980
  C         3.1086578325        2.3294362159       11.0099334572
  C         3.0784608755        2.5818242525       13.6563590291
  C         3.8832773771        2.7222738699        9.7121587459
  H         2.2794569490        3.0557739161       11.1217286836
  H         2.6632038366        1.2872190949       11.0429165979
  H         2.6101549209        1.6184925563       13.8684995086
  H         2.3373960243        3.3296166609       13.5122520860
  H         3.7737738202        3.0118690946       14.3960136209
  C         4.6813722387        1.5165500274        9.0295847294
  H         3.2300079841        3.0284679540        9.0029707943
  H         4.4911698229        3.5915911289        9.6617220133
  C         5.5440871460        1.9190986782        7.8692962151
  H         3.9646429769        0.7563682199        8.6682400286
  H         5.3597144988        1.0697549581        9.7505338687
  C         6.7760491070        2.7708448043        8.2744893478
  H         4.9670920456        2.5482434088        7.2742186920
  H         5.9255450813        1.0480008734        7.2351451890
  C         7.9287221225        2.0141828528        8.8696827558
  H         7.1723220707        3.2535250502        7.3748814380
  H         6.5149783451        3.6160908290        8.8807529268
  C         9.2171649905        2.8477671177        9.0806608062
  H         8.1950889677        1.1808869740        8.2248789258
  H         7.5972555634        1.5259778116        9.8272491272
  C         8.8667082527        4.1771832471        9.7419706149
  C         9.6723942142        3.5138444048        7.8109968168
  C        10.3469529811        2.0918195918        9.7352263598
  C         9.0596728165        5.2850324955        8.9307088372
  C         8.4104061041        4.5250064875       10.9899425667
  C         9.5797631603        4.8708950277        7.6916487587
  C        10.0828216414        2.9027353068        6.6145425072
  H         9.9384875271        2.0231676475       10.8036965601
  H        10.4704150906        1.0424820838        9.2912505990
  C        11.6882422281        2.9075192339        9.8895718046
  S         8.5378725830        6.7715011393        9.6789342499
  C         8.1398980364        5.8568100660       11.0706087626
  H         8.2470973517        3.7740054069       11.7307489102
  C         9.9613074246        5.5006076430        6.5398204933
  H        10.1360479589        1.8445534583        6.5708580597
  C        10.4910922609        3.5730230810        5.4673538169
  H        11.4933342239        3.9559907331       10.0941245023
  H        12.0734339228        2.8450835315        8.9077545162
  C        12.5580735215        2.1694983485       10.9830694846
  C         7.6177517077        6.5846828783       12.2229044260
  C        10.4131103831        4.8673491274        5.3525238515
  H         9.8018877256        6.5414512313        6.4608126288
  C        11.0047369247        3.2236950132        4.2364275349
  H        13.6122432890        2.2718759827       10.7643140374
  H        12.2987581049        1.1317024502       10.9843970435
  C        12.1506840476        2.5757834988       12.3812437637
  C         7.6822206206        7.9896540531       12.5000033381
  C         7.1754884881        5.7897635823       13.3515331663
  C        10.8234594985        5.5999121833        4.1349115590
  C        11.0836910418        4.2693930462        3.3549369599
  S        11.3629608585        1.7023684235        3.4868999573
  H        11.9388420791        3.6122854143       12.2989832496
  H        11.2956596306        2.0204173750       12.7040886702
  C        13.3490790919        2.5128198541       13.3000859565
  N         8.1320941932        8.9526558398       11.6143939320
  C         7.3603953699        8.5529853994       13.7264037638
  C         6.9440012416        6.3073778204       14.6428750693
  H         7.0661382933        4.7366450033       13.1284230225
  C        12.1464214682        6.3107634135        4.4857157750
  C         9.8150966227        6.3764431430        3.3105364091
  C        11.3980324369        3.8888702805        2.0530899541
  C        11.5811764257        2.5211972001        2.0053430858
  H        13.7422744642        3.5087612089       13.5120536534
  H        14.2029224475        1.9825386330       12.8382868881
  C        13.0455879324        1.7103481148       14.5567300127
  S         8.0077846704       10.3799886783       12.2840563062
  N         7.4965979042        9.9295897568       13.7271630275
  C         7.0373604493        7.7821364161       14.8872624825
  H         6.5080165629        5.6813709402       15.4083696923
  H        12.0092328502        7.0468394980        5.2513892580
  H        12.5043971479        6.7599675640        3.5518347363
  C        13.3275709009        5.4842564765        4.9738280201
  H         9.5852776450        7.2830833532        3.8512942602
  H        10.3876107332        6.7491785534        2.5037597891
  C         8.6582990408        5.4961309394        2.8990963582
  H        11.6497586797        4.5784271305        1.2373865279
  C        12.0663511058        1.6956489770        0.8347347579
  H        12.3876684577        0.9175632200       14.3163779270
  H        13.9614357556        1.3316046308       14.9918169571
  C        12.4391354928        2.6771004862       15.5915981514
  C         6.8057495303        8.3572601414       16.1437429360
  H        13.0509454654        5.0156831133        5.9231756733
  H        13.7192785931        4.5680349842        4.3946616675
  C        14.5039299140        6.4303728579        5.3255272856
  H         8.3318926212        4.9142251156        3.7471468261
  H         9.0010397497        4.8408321537        2.0605668828
  C         7.4900921254        6.4173766887        2.4822725207
  C        12.1837197706        0.3165309856        0.5919471783
  C        12.2317939572        2.5351561052       -0.3978584211
  H        11.5057657951        3.0703393839       15.1627861911
  H        13.1520503286        3.5310146796       15.8200723939
  C        12.1276916580        2.0061562492       16.9204431042
  H         6.9095097867        9.4238132371       16.1722915823
  C         6.4944435551        7.8814267022       17.3729994064
  H        14.3321855055        7.0107736996        6.2283877863
  H        14.5584746323        7.0053306185        4.3752698493
  C        15.7740973538        5.5765170444        5.5984612762
  H         7.2418552755        7.0627663002        3.3390377590
  H         7.8082901095        7.0297880302        1.7221670354
  C         6.3941037511        5.4465168328        2.0628591638
  N        11.9105999085       -0.7286602412        1.5449936131
  C        12.3535195821       -0.2860847104       -0.6315812406
  C        12.6042497312        2.0136435762       -1.6345117675
  H        12.2418169292        3.6291033830       -0.3077901747
  H        12.7615446380        1.1728956301       17.2261432216
  H        11.0741039999        1.7625511429       16.8371697925
  H        12.1597704092        2.8126507356       17.6337399728
  S         6.2236443764        6.2637495336       17.7803498066
  C         6.4624658177        8.8512037181       18.4549694506
  H        15.6114618808        4.7437570755        6.2546787527
  H        16.2079392623        5.2814254945        4.6387736635
  C        16.8161586632        6.4898578062        6.1798929038
  H         6.0012131850        5.0151043998        2.9870764030
  H         6.8410245518        4.6121101874        1.4829014135
  C         5.2543038777        6.2341005040        1.3704580949
  S        11.9665536603       -2.1796992712        0.8420666699
  N        12.3051693200       -1.7010191443       -0.6492804053
  C        12.6180105493        0.5171369350       -1.8250787682
  H        12.8018815595        2.7360916616       -2.4185199143
  C         5.8947144932        6.9136296691       19.3824470431
  N         6.0201992229        8.2531175359       19.5770988719
  O         6.6793879833       10.0593156931       18.3280081434
  H        16.9322236752        7.2397995134        5.4554437614
  H        16.4932530905        7.1585650663        6.9874593571
  C        18.0171997318        5.5864907830        6.5533480660
  H         5.7032417736        6.8493307076        0.6043312765
  H         4.5996451449        5.4994022797        0.8311060313
  C         4.3578029133        7.0851222720        2.2526853309
  C        12.7520088193       -0.0458682901       -3.0907940984
  S         5.6517522525        5.8627636188       20.7914991851
  C         5.8871267603        8.9236326873       20.8338355223
  H        17.7962602720        5.2033800624        7.5891495192
  H        18.0545201227        4.7407303556        5.9983993142
  C        19.3748807280        6.2189506224        6.5609941747
  H         4.7761072073        7.7413849124        3.0630566105
  H         3.6405986440        6.3894158370        2.7875849081
  C         3.5963968701        8.1431889875        1.4672897135
  H        12.4837529143       -1.0697681689       -3.0882279645
  C        13.2600890080        0.4015505865       -4.2966767925
  H         5.4525457278        8.2611172190       21.6144393631
  H         5.1490704879        9.7358622042       20.8465456284
  C         7.2442407154        9.4341794474       21.4111563174
  H        20.1009992781        5.4364169985        6.8512792912
  H        19.4891358327        6.9379882295        7.4189776495
  C        19.8452018848        6.7855953396        5.1854998945
  H         3.6273911487        7.8496100936        0.4402704339
  H         2.5869910958        8.2396216220        1.8723166329
  C         4.1539563032        9.5350602851        1.6592786043
  S        13.8670851892        2.0311300939       -4.5702165820
  C        13.2948624268       -0.5208094103       -5.4296737606
  H         7.8769262015        8.6280547383       21.7774082603
  H         6.9855514799       10.0771615847       22.2292722830
  H         7.7710519039        9.9357847623       20.6421575062
  H        19.8074109719        6.0228069461        4.3898017630
  H        19.0471405026        7.4558550884        4.8543304862
  H        20.8911995878        7.1254116221        5.1978240480
  H         4.1962293146        9.7440373204        2.7331584571
  H         5.1581154297        9.7004530015        1.2802814983
  H         3.4627672842       10.2799262128        1.1657262657
  C        14.1403969582        1.4572326684       -6.2728516853
  N        13.9292950944        0.0997715927       -6.4712834812
  O        12.8671904096       -1.6211641574       -5.4168148894
  S        15.1519511275        2.2731961550       -7.4159238665
  C        14.2258526994       -0.6005762829       -7.6582206648
  H        14.5654212661       -1.6297864876       -7.3237662310
  H        15.0090133798       -0.2912837959       -8.3084733452
  C        12.9799396335       -0.5767355891       -8.4605203004
  H        12.9327861945        0.3050602396       -9.0523566227
  H        12.0426550756       -0.6660320484       -7.9869380904
  H        12.9812999870       -1.4179141263       -9.1142819227
