352
 i =    63100, time =    31550.000, E =        98.8405922795
  H        11.8033351503        5.1904083278       32.4101111443
  C        10.7840190372        5.5124534290       32.6968429645
  H        10.1241204584        4.6948411587       32.8988568809
  C        10.0614704839        6.4333307293       31.7403409127
  C        11.0281247267        6.1795291979       34.0658977232
  C         9.5763664361        5.7951813053       30.4179545663
  H         9.3345020583        7.0009908754       32.3215137840
  H        10.7824920944        7.1929832545       31.5679034041
  H        10.8339722183        7.2834195446       34.1935074253
  H        10.4922610504        5.5689933263       34.8042862940
  H        12.1044909688        6.0820961293       34.1516969625
  C         9.7343277175        6.7980205577       29.2190149231
  H         8.5003537136        5.4154423766       30.4256851789
  H        10.0671655836        4.8957364182       30.2073256379
  C        10.1569610915        6.1508289239       27.8966866263
  H         8.7807107372        7.3050481418       29.1886454424
  H        10.4661154006        7.5190077087       29.4107985130
  C         8.9692713335        5.5028862556       27.2967857182
  H        10.8071557015        5.3047613781       28.0208565497
  H        10.5812784596        6.8343733366       27.1158926499
  C         7.9616103578        6.3313144878       26.5343064731
  H         9.2903354350        4.8129372683       26.6159034645
  H         8.4997342697        4.9356786145       28.0555264405
  C         6.9273311813        5.4939771144       25.7431882806
  H         7.4607511145        7.0881254556       27.1982304407
  H         8.5272092942        6.9958621404       25.8174196626
  C         6.6324550111        4.1268759452       26.4453957458
  C         7.4760207821        4.7593538414       24.5023753160
  C         5.5370443547        6.1713462820       25.5564200132
  C         6.9307370984        3.0112314181       25.6656641600
  C         6.0778997271        3.7510214163       27.6731100565
  C         7.5149875547        3.4325741233       24.4639143553
  C         8.0587189686        5.3815391615       23.3947189964
  H         5.7525665123        7.0444861182       24.9615109098
  H         5.1143449157        6.5002633707       26.5371649315
  C         4.3738840962        5.3453386203       24.8471007423
  S         6.4747232426        1.5100818410       26.3891545331
  C         6.0051572059        2.4206174954       27.7759252428
  H         5.8367851227        4.5268875850       28.3877040088
  C         7.9085883768        2.8101194537       23.2657978476
  H         8.1271110981        6.4400084440       23.3922732034
  C         8.5553852015        4.7719884918       22.3020117781
  H         4.8972182675        4.9761639386       23.9538698920
  H         4.2229255807        4.3255897429       25.2701076288
  C         3.1665428110        6.1925193905       24.5242016768
  C         5.5085097895        1.7002241851       29.0188940555
  C         8.4559243557        3.4509795029       22.1412670425
  H         7.7931640400        1.7668478844       23.3414086561
  C         9.0309629900        5.1956513279       21.0895118128
  H         2.5999557662        5.7566568307       23.7228306446
  H         3.5827514830        7.0464723320       24.0376823669
  C         2.3052605225        6.6012947024       25.7007785104
  C         5.4852714042        0.3180137092       29.1981332194
  C         5.2532760043        2.5156297492       30.2481804529
  C         8.8753766070        2.7425303401       20.8875799221
  C         9.3223446582        4.1267098597       20.3041342136
  S         9.2683137670        6.7076365148       20.2382442175
  H         1.6945579839        7.4684457658       25.3358916343
  H         3.0566053747        7.0282547510       26.4667019172
  C         1.4905270683        5.4742699016       26.2852869088
  N         5.7222033054       -0.6403140539       28.2419393314
  C         5.3047241862       -0.3196412762       30.4260727629
  C         4.8790050355        1.8635412968       31.4033946266
  H         5.2060918203        3.6267595260       30.2321332425
  C         7.6604654290        2.0284365795       20.2144441108
  C        10.0595243506        1.7969962202       21.2413272935
  C         9.7162643973        4.4639367607       19.0352822237
  C         9.6875832015        5.8457039692       18.8491658327
  H         0.6513430052        5.1463432639       25.6781136116
  H         2.1004630704        4.6027219543       26.5337006542
  C         0.8453622323        5.7938539135       27.6642046625
  S         5.9339984721       -2.1094289657       28.8701167881
  N         5.5083525463       -1.6606511414       30.4000802825
  C         5.0034571369        0.3823722775       31.6046130084
  H         4.6206476510        2.4598231349       32.2560930094
  H         7.3075325776        1.3126500890       20.9876203049
  H         7.9936739100        1.3304036144       19.4433521439
  C         6.5436255400        2.9874559792       19.7356200963
  H        10.1109785992        1.0432985596       20.4446140704
  H         9.8307662458        1.2793293721       22.1503840453
  C        11.4730219074        2.4664730951       21.2339522427
  H         9.8235563018        3.6872108561       18.3408771262
  C         9.9588176012        6.5491448033       17.5633292482
  H         0.1166057368        5.0038312269       27.7968781565
  H         0.2787793397        6.7229795267       27.6333065123
  C         1.8064806429        5.8255981888       28.8179238538
  C         4.7463506531       -0.3586224677       32.7840768863
  H         7.0332234917        3.6759528896       19.0635733594
  H         6.0009343601        3.6058247033       20.4851502994
  C         5.5638294752        2.1623170477       18.9374295250
  H        11.4949085185        3.2165235596       22.0639626789
  H        11.6489695391        3.0768425783       20.3902151145
  C        12.6378931301        1.5208916780       21.4465405249
  C        10.0094470913        7.9681122310       17.3810265375
  C        10.1069479512        5.6905660249       16.3375573900
  H         2.4912909036        4.9924024597       28.6392735346
  H         2.1994382916        6.8105518475       28.9439196510
  C         1.0589709561        5.4315618856       30.1165395720
  H         4.9276182886       -1.3744633541       32.6594699246
  C         4.4322118280       -0.0531626633       34.0821256735
  H         5.0959164454        1.4481313528       19.5843863368
  H         6.1325023170        1.5096979070       18.2329751895
  C         4.5634805199        3.0877061286       18.1780681594
  H        12.4628393778        0.9600690341       22.2925100964
  H        12.5808065532        0.8710324385       20.5737547806
  C        13.9164213921        2.3106082668       21.4664759381
  N         9.8972361320        8.9297216708       18.3971317580
  C        10.3738925716        8.5147937215       16.1913356783
  C        10.4897599156        6.2224381471       15.1121690460
  H        10.0116314829        4.6400707892       16.4505151333
  H         0.5447281604        4.4890399970       30.0572768114
  H         1.7864197589        5.4996048296       30.9706900424
  H         0.2299193957        6.2023309621       30.1375191805
  S         4.0737449478        1.5931953390       34.5975257677
  C         4.5306608367       -1.0540597721       35.1115775316
  H         4.4112433165        4.0029744341       18.7093466060
  H         4.9691030795        3.1913502362       17.1412592638
  C         3.2492132061        2.4755312001       17.8155518936
  H        13.8707418135        3.2603935824       20.9356018127
  H        14.5961402831        1.6319582597       20.9739044933
  C        14.3051347457        2.5369598710       22.9035031789
  S         9.7928729128       10.4122554941       17.7134781155
  N        10.2473240715        9.8956324138       16.2558894929
  C        10.5688720498        7.7348881474       14.9572892818
  H        10.6185877486        5.6520929810       14.2155004593
  C         4.1112920871        0.8798935676       36.2333839064
  N         4.3242437999       -0.4691908953       36.2608254515
  O         4.6829039672       -2.2581209498       34.8858784204
  H         2.8264428073        3.1139489078       17.0060175605
  H         2.7023631829        2.5818249982       18.7420733400
  C         3.1590123672        0.9956416029       17.5167530165
  H        13.4775564137        2.7894342445       23.5424651485
  H        14.6740329718        1.5886260607       23.3004445002
  C        15.4522670989        3.5729315610       23.0483298161
  C        10.8703601477        8.4106721445       13.7797960158
  S         3.8167042882        1.6619678445       37.7868327607
  C         4.5572216372       -1.2562479152       37.4807223889
  H         2.3610245302        0.8937984662       16.7465103723
  H         4.0251681953        0.5479200648       17.1027687439
  C         2.6675686968       -0.0059475580       18.6126084097
  H        15.6113551088        3.7539097515       24.1384036707
  H        15.1403472594        4.4175626498       22.5980741524
  C        16.7502684663        2.9776610873       22.4909716496
  H        10.7304653100        9.5076024944       13.7865743126
  C        11.2578773252        8.0734475354       12.4905831030
  H         4.1016412523       -0.7570939731       38.3427543577
  H         3.9393910195       -2.1640251194       37.3580238893
  C         6.0634296899       -1.5434907907       37.5631070153
  H         2.3884546440        0.5375055642       19.5164479397
  H         3.5610573476       -0.5036915849       18.8363292124
  C         1.4289970578       -0.8782086175       18.1429589769
  H        16.4856847100        2.3987916684       21.5797003058
  H        17.4066700422        3.8196812331       22.1771065574
  C        17.4055995296        1.9850012484       23.4609539096
  S        11.3642030249        6.5463536273       11.8217427883
  C        11.5275763204        9.1912163550       11.4623135153
  H         6.3593531435       -2.4669236187       37.0612365271
  H         6.6191601746       -0.7374027039       37.1063193917
  H         6.2505165813       -1.5952200817       38.5865701054
  H         1.3479414652       -1.7705435349       18.7803316289
  H         1.4264011574       -1.1604946909       17.1062359032
  H         0.5275767872       -0.1990010406       18.2473809657
  H        17.5867887857        2.4294823661       24.4360395056
  H        18.3826226797        1.6929603375       23.2258346022
  H        16.8064303799        1.1486067292       23.6009790061
  C        11.8015389356        7.2798501860       10.2444243249
  N        11.8539499552        8.6244603113       10.2579328449
  O        11.2421389364       10.3476916995       11.8136316421
  S        12.0946960484        6.4714315554        8.7398931832
  C        11.9604267973        9.5012111987        9.0660842630
  H        12.2515416739       10.4143050423        9.4288529823
  H        12.6760102809        9.1077383435        8.3537413560
  C        10.5345151800        9.6432949463        8.4619658851
  H        10.5920972755       10.4102853758        7.6726706785
  H        10.1398070020        8.7682979193        7.9331711168
  H         9.8933691120       10.0580194434        9.2029406888
  H         4.5903082619        1.8536036677       12.6809156294
  C         3.8294128443        2.6634614280       12.5633904807
  H         4.4903449086        3.4886549958       12.4690692685
  C         2.9466466576        2.5280019545       11.3843374046
  C         3.1045531746        2.9114884857       13.8342453839
  C         3.6682325632        2.7672526148       10.0313653283
  H         2.0893514997        3.2584207142       11.4217291754
  H         2.4943130025        1.5592931206       11.3475454627
  H         3.7308633239        3.0888288334       14.6405719501
  H         2.5278033627        2.0112068219       14.0678020138
  H         2.3388101830        3.6450605742       13.7539449021
  C         4.4154898183        1.5191535194        9.6592271554
  H         2.9841659175        2.9627527378        9.2271573972
  H         4.3016518795        3.6981362753       10.1113985444
  C         5.0287766732        1.6979298213        8.2396333411
  H         3.7235587199        0.6252320933        9.7632630772
  H         5.2819922482        1.4116715914       10.3875133931
  C         6.2311508895        2.5992375202        8.3140660446
  H         4.3241821373        1.8064020310        7.4284665981
  H         5.4242275143        0.7373411761        7.9423518690
  C         7.4448800782        2.0403829655        8.9999212109
  H         6.4740697550        2.9432650352        7.3032774504
  H         5.8283741902        3.3860806736        8.8923736834
  C         8.7307490228        2.9432986865        9.1780179921
  H         7.7872474699        1.1169249530        8.5198218695
  H         7.2431960298        1.7304679845       10.0020653302
  C         8.3059471477        4.2559923819        9.8642983133
  C         9.1074519438        3.6299424525        7.9113153008
  C         9.9056074334        2.1779108692        9.7530143327
  C         8.5134008629        5.3670642735        9.0342399754
  C         7.7231097977        4.6686576496       11.0651096614
  C         9.0053378930        4.9754213975        7.7793680354
  C         9.6668909862        2.9785531997        6.7683458921
  H         9.5386433869        1.7197079517       10.6980538554
  H        10.1243063515        1.2809714398        9.1557991903
  C        11.1211555170        3.0537376905       10.0445064891
  S         8.3111866356        6.9086800079        9.8519879487
  C         7.7738276372        6.0197634387       11.2680515895
  H         7.5135649911        3.9328882453       11.8117666454
  C         9.4280143695        5.6214531940        6.6728811055
  H         9.8082614173        1.8800720065        6.8081087758
  C         9.9680828217        3.6122992329        5.6358014218
  H        10.8293089647        4.0354499569       10.3678316911
  H        11.5989537316        3.3525450992        9.0877054926
  C        12.1195629020        2.4145790848       10.9816829304
  C         7.4765974641        6.6143029201       12.6209123753
  C         9.9136255659        4.9706827715        5.5494091466
  H         9.5263184855        6.7363423143        6.6898519306
  C        10.3501486946        3.2330621844        4.4005650832
  H        13.1891928591        2.7685991657       10.6618151303
  H        12.0929641761        1.3470836089       10.8400736784
  C        11.7259779983        2.8068127650       12.4248856699
  C         7.4786677094        8.0167622962       12.8957043098
  C         7.0174617742        5.6895125275       13.7021269310
  C        10.3215423993        5.6652138801        4.2797795731
  C        10.5348387014        4.3367262384        3.5655302934
  S        10.7025704906        1.7181389181        3.7595820180
  H        11.9065228017        3.8505306593       12.5516845538
  H        10.5711941761        2.8721196873       12.5859140563
  C        12.2591229971        1.9175004456       13.4407895365
  N         7.9789513846        8.9089752059       11.9209661867
  C         7.2835203414        8.5759686411       14.1065003794
  C         6.7953076772        6.3365175016       14.9318941514
  H         7.0111215949        4.6200276735       13.6745488881
  C        11.6488799169        6.5245941420        4.5641766828
  C         9.1608540243        6.5616617186        3.6915624473
  C        10.9071432751        3.9069725249        2.2393632219
  C        11.0545538308        2.5129488515        2.2116686183
  H        13.2986167145        1.9351627896       13.4776767287
  H        11.9263447606        0.8171384056       13.4000015251
  C        11.9493209093        2.3736844581       14.9103009793
  S         8.0442578170       10.4137633558       12.5817981246
  N         7.5235598893        9.9255722820       14.0806625108
  C         6.9682541905        7.8142000013       15.2255925336
  H         6.3108711149        5.7415409211       15.6603268488
  H        11.4672770455        7.2652303378        5.3424215568
  H        11.8693057929        7.1515607530        3.6010714120
  C        12.8167418780        5.6633086415        4.8978014472
  H         8.8572333145        7.2204635355        4.5140067191
  H         9.4196083670        7.1963202021        2.8565327979
  C         7.9677195324        5.7016858870        3.1398684375
  H        11.0623138599        4.6221876789        1.3951835938
  C        11.3639471402        1.7563564483        0.9414232099
  H        12.1191955941        3.4479063181       14.9797723665
  H        10.9056045487        2.2387399534       15.1180440194
  C        12.6998126702        1.4824964294       15.8928808980
  C         6.7006739187        8.5128877469       16.4173834575
  H        12.5519913439        4.9229675731        5.6378967203
  H        13.1303607324        5.1097224055        4.0553113946
  C        14.0543691868        6.4566712683        5.3718157580
  H         7.6468581475        5.0793787630        3.9560606868
  H         8.2462443588        5.0250265462        2.2951895551
  C         6.8587557737        6.6485728139        2.6688140365
  C        11.4466875329        0.3220874821        0.8877643533
  C        11.5970262310        2.4402489085       -0.3595902822
  H        13.6873350093        1.2681536451       15.5638746714
  H        12.0885713646        0.5780739563       15.8135157985
  C        12.5335791479        1.9189602401       17.3380087448
  H         6.6655231121        9.5541898689       16.3351166056
  C         6.5546062201        8.0772725352       17.6983444724
  H        13.8775073564        6.9859892883        6.3454335625
  H        14.2945787925        7.1608909976        4.5330184361
  C        15.3043244658        5.6024545850        5.5572340758
  H         6.6320341714        7.2511055453        3.5588512249
  H         7.2597291713        7.3435499796        1.9778991447
  C         5.5759530123        5.9814703771        2.1885720637
  N        11.3600624994       -0.5798889771        1.9507924452
  C        11.7997077658       -0.3281299752       -0.2915423663
  C        11.9078397431        1.7778821212       -1.5112114042
  H        11.5052858339        3.5458532506       -0.3979312629
  H        12.9368540445        2.9229922051       17.5505077017
  H        13.0649158897        1.1781137159       18.0098690911
  H        11.4884741799        1.7791076693       17.7010895932
  S         6.3444089918        6.4185863151       18.1510659826
  C         6.4356808984        9.0823124551       18.7592711335
  H        14.9972646432        4.6791952097        6.0259720231
  H        15.6772224132        5.3724281335        4.5019896053
  C        16.5139362084        6.2000884824        6.3210841341
  H         5.2439412645        5.2219456422        2.9136893130
  H         5.8510008393        5.3154047645        1.3766844079
  C         4.5592616809        7.0060146971        1.7281765025
  S        11.6991056323       -2.0625599808        1.3979976231
  N        12.1969694918       -1.6854986009       -0.0940705104
  C        11.9348218142        0.2663505649       -1.5773123692
  H        12.0566265972        2.4051163206       -2.3813473178
  C         6.1456932792        7.0484350665       19.7946470720
  N         6.1188478229        8.4220058103       19.9069229816
  O         6.6264872348       10.3036015913       18.5279419157
  H        16.8640707373        7.1359415625        5.8272084188
  H        16.2113524857        6.4473612792        7.2887543180
  C        17.7143079324        5.2512530645        6.4642009491
  H         5.0745507980        7.5500104198        0.9090592937
  H         3.7861161059        6.4495052751        1.1543975141
  C         3.8844645674        7.9181549537        2.7897488924
  C        12.2736296589       -0.5276959142       -2.6730576894
  S         5.6121233649        6.1660703803       21.2054374612
  C         6.0545892087        9.2245279017       21.1457267406
  H        17.4730617423        4.2713210415        6.9051286080
  H        17.9993347292        4.9450409647        5.5259835970
  C        18.8541554588        5.8787326239        7.2476374566
  H         4.6085508235        8.2187256113        3.4855972728
  H         3.2185934936        7.2329928427        3.2220223511
  C         3.0043666848        9.0397753856        2.1792608605
  H        12.0240378746       -1.5590201327       -2.5941773978
  C        12.8824313047       -0.2255137213       -3.8603250264
  H         5.4299927507        8.8519206977       21.8321279049
  H         5.5266133356       10.2055019733       20.9615407467
  C         7.4720445041        9.4907833846       21.6890358727
  H        19.1544291222        5.3604228300        8.2239171033
  H        18.6561266593        6.8891343004        7.4684735260
  C        20.0604479833        5.9263114590        6.2879102359
  H         2.6237435746        8.7211164214        1.1934298657
  H         2.0674268443        9.0906006381        2.7469102856
  C         3.6866069644       10.4113314811        2.1127038239
  S        13.4132752807        1.3558539610       -4.4197924529
  C        12.9498622265       -1.2460677035       -4.9791144529
  H         8.3322814121        9.5479969920       20.9053697736
  H         7.7392198916        8.8155255241       22.4016468659
  H         7.5464482895       10.5216374836       22.1214703881
  H        20.8835008772        6.4351634293        6.7562559501
  H        20.2756183061        4.8855139648        6.0660479416
  H        19.8677845636        6.4613698038        5.3747157721
  H         3.0109142195       11.2096040933        2.1017514850
  H         4.2986208579       10.5027213446        3.0033608447
  H         4.2388402372       10.5307017176        1.1598924537
  C        13.7046036884        0.6168222091       -6.0255291467
  N        13.4337912560       -0.7233384682       -6.1006408361
  O        12.4253943875       -2.3757861302       -4.8099859406
  S        14.0056666149        1.4966936032       -7.5194122000
  C        13.5184833749       -1.5103303086       -7.2879008774
  H        13.6377514967       -2.4955445576       -6.9411500865
  H        14.5177899479       -1.4202533598       -7.7322242645
  C        12.3730422838       -1.4246943287       -8.2057201206
  H        12.5322931971       -2.3226969691       -8.7698754055
  H        12.4747046960       -0.6246356834       -8.9015915350
  H        11.4285503640       -1.4201677036       -7.7067200438
