352
 i =   115900, time =    57950.000, E =        99.6814774412
  H         9.5660804251        4.3467631906       32.0951176600
  C         9.9309725851        5.3642331968       32.3976971424
  H         9.1089917555        6.0686160761       32.3359040655
  C        11.1732975931        5.8293399414       31.5308812936
  C        10.4006024749        5.2960788255       33.8932407862
  C        10.9085640398        6.2418100457       30.0747265573
  H        11.6552464545        6.6857901729       31.9545353056
  H        11.9616936537        5.0533257835       31.5349581061
  H        10.4489125125        6.2173576064       34.5267635785
  H         9.7172343353        4.6345772700       34.3729477452
  H        11.3513155343        4.7977391189       33.9203655614
  C        10.0761930787        5.2474254212       29.2527201985
  H        11.8314978649        6.4234823762       29.5441919718
  H        10.3695287727        7.1862433994       30.0957453531
  C        10.4771745708        5.2863667952       27.7959105019
  H        10.1978276088        4.2340307006       29.5437532391
  H         9.0245841444        5.2523089971       29.5390944849
  C         9.4316360557        4.8215150643       26.8107098584
  H        11.4377263527        4.9930141678       27.5104503033
  H        10.5794693947        6.3692436879       27.4876977292
  C         8.3311730876        5.7946955978       26.4378124561
  H        10.0268340244        4.6503973678       25.9041909042
  H         9.0755214166        3.8841968564       27.1571425236
  C         7.1805197431        5.1631988348       25.7108118209
  H         8.0096249702        6.3067065377       27.3263695331
  H         8.7134284249        6.5686007908       25.7565252475
  C         6.7118844715        3.8119837454       26.3448557921
  C         7.5618859333        4.5361683887       24.4434549321
  C         5.9939393421        6.0898857021       25.4745256407
  C         6.9636431514        2.7057205521       25.5719195844
  C         6.1331580830        3.4976720045       27.5912881869
  C         7.4944923922        3.1536680709       24.3526403555
  C         8.0144917094        5.1653801188       23.3128337190
  H         6.2802309480        7.0015847479       24.9128397795
  H         5.7281398472        6.5864278961       26.4548256976
  C         4.7219220872        5.4925412301       24.8159970852
  S         6.3930487351        1.2238292357       26.2129351777
  C         5.8810656520        2.0779592315       27.6208714584
  H         5.9547685488        4.2561705867       28.3072186387
  C         7.8919735712        2.5467253578       23.2160378992
  H         8.0727655494        6.1996688985       23.3235468539
  C         8.4138377171        4.5492586237       22.1745012980
  H         4.9521665531        5.2570911405       23.8368499927
  H         4.5544283712        4.4990011064       25.2607488118
  C         3.4421502487        6.2994280144       24.8540148852
  C         5.4239684070        1.4066280465       28.8707457337
  C         8.3675530847        3.1878485360       22.0448424047
  H         7.7814965819        1.5156774721       23.1685275622
  C         8.8635720200        4.9960931919       20.9336380835
  H         2.7241690641        5.8050946320       24.2244958257
  H         3.6748748008        7.2754794193       24.3731027741
  C         2.6578848339        6.4494340790       26.0777079719
  C         5.4988765254       -0.0128803968       29.1615856006
  C         4.9296042033        2.2221696059       29.9838633051
  C         8.8140027867        2.5449413620       20.7901629838
  C         9.0904499715        3.8919552026       20.1016323039
  S         9.1647185316        6.5555661111       20.1602002291
  H         1.7698152061        7.0352071830       25.8615677139
  H         3.2280679282        7.0127137630       26.8724613570
  C         2.1478211127        5.0900305522       26.6031779975
  N         5.9324766128       -0.9873973145       28.2440386494
  C         5.1489197263       -0.5281378480       30.4271434095
  C         4.4928511522        1.7009353194       31.2223842759
  H         4.6805333707        3.2179454955       29.7989285724
  C         7.7246458019        1.7922923060       20.1799876578
  C        10.0482197580        1.6163431479       20.9880765381
  C         9.5631665970        4.3084434433       18.8809396463
  C         9.5602493640        5.6731155648       18.7284666936
  H         1.6510552298        4.6176634735       25.8077060949
  H         2.9004415774        4.4886355385       26.9931009910
  C         1.0214072946        5.3500814262       27.6937333087
  S         5.8302938020       -2.4141509876       28.9538310486
  N         5.2893980916       -1.9401125072       30.4486895638
  C         4.6111342881        0.2405421978       31.4486111763
  H         4.0386079846        2.2188219703       32.0652543608
  H         7.2049594341        1.1128735934       20.8057694260
  H         8.1575540035        1.2211456741       19.2957687537
  C         6.6844851339        2.6557529206       19.5374066274
  H        10.1765554808        1.0750152174       20.0912958713
  H         9.7908375992        0.8933950946       21.7508381042
  C        11.2872917527        2.4422278432       21.3374479203
  H         9.7248792383        3.6276681639       18.0820303717
  C         9.7870389583        6.3557588240       17.3876743694
  H         0.5421980578        4.4499251465       28.0248056424
  H         0.2980220695        6.0008313055       27.2554932135
  C         1.5693678373        6.0171477460       28.9755233973
  C         4.2942709739       -0.5015866037       32.6727408641
  H         7.0709287867        3.4058250714       18.7981800197
  H         6.3416349470        3.3644552582       20.2863516262
  C         5.3651922991        1.9057203283       19.0748429321
  H        11.0574466945        3.2404545581       22.1114333244
  H        11.7946243039        2.9406226958       20.4827371013
  C        12.2880569670        1.5220103631       22.0963884730
  C         9.8761694295        7.7914796921       17.2216664883
  C        10.1052204822        5.5343043497       16.2070006522
  H         2.1466303109        6.9184024733       28.7097764425
  H         0.7617507246        6.3138519333       29.6662563410
  C         2.6070935868        5.1741187647       29.7913088233
  H         4.3411728580       -1.5979466851       32.5576489398
  C         4.0834795180       -0.1408291891       33.9723580275
  H         5.0005631071        1.4033816371       19.9036156550
  H         5.7057335896        1.0452223753       18.4944822817
  C         4.5452869657        2.7016918186       18.1186485796
  H        11.8499083139        0.7728041936       22.6978337577
  H        12.7900666907        0.8621191485       21.4669848215
  C        13.2086582025        2.3439952203       23.0060858653
  N         9.6573413098        8.8038774354       18.1655616576
  C        10.2056390671        8.3822406095       16.0028122038
  C        10.4554108289        6.1046622663       15.0324541313
  H        10.0387984057        4.4287797509       16.2256726366
  H         2.7079267858        5.5626711557       30.7941593265
  H         2.3939209318        4.0997221554       29.7205803459
  H         3.6327106899        5.4317180986       29.4435451303
  S         4.0497900667        1.4840745552       34.5389336081
  C         4.0047342863       -1.1737662250       34.9966286039
  H         4.6497911027        3.7543646322       18.4076966567
  H         5.0612170291        2.6408085388       17.1841588530
  C         3.0977931162        2.2975797337       18.0049781922
  H        13.0844910528        2.0173900591       24.0202133696
  H        13.0463469068        3.4084589025       23.1024939576
  C        14.7209554667        2.0068209128       22.8181831554
  S         9.7374825672       10.2368836094       17.4727657775
  N        10.2317096642        9.8044305777       16.0162307089
  C        10.5865171965        7.6196022871       14.9053765722
  H        10.7133679350        5.4599029831       14.1743920634
  C         3.7958152911        0.8014035602       36.1547223409
  N         3.6590198853       -0.5239637905       36.1641565400
  O         4.0088956718       -2.3541840876       34.7522349889
  H         2.5827102622        2.9310784951       17.2847396325
  H         2.6506924790        2.4813516303       18.9677403310
  C         2.9417389674        0.8444283984       17.5194302020
  H        15.1730747611        1.9620820720       23.7850748737
  H        14.8405182124        0.9943912295       22.3923348355
  C        15.5160797348        3.0899581627       22.0263416402
  C        10.9774604458        8.3648324310       13.7452320972
  S         3.3120651451        1.6616941671       37.6072540650
  C         3.5001947079       -1.2091738452       37.3843199378
  H         2.3522946662        0.9300685464       16.6230962255
  H         3.8733349472        0.4270948540       17.2640104313
  C         2.2723826837        0.0286568282       18.6699370832
  H        15.6209478349        3.8754330314       22.7100416787
  H        14.8373111997        3.3418289628       21.1683679508
  C        16.9323992405        2.8168912595       21.4956312120
  H        10.6547417957        9.3760158165       13.7701362462
  C        11.3698041883        8.0462640273       12.4630341494
  H         2.6751263335       -0.8652648738       37.9651408512
  H         3.2395456667       -2.2554748975       37.1371048552
  C         4.8689548228       -1.2771148751       38.0905262877
  H         1.2711370853        0.3219552225       18.7304301527
  H         2.6192262258        0.1083699012       19.7079440672
  C         2.3298242952       -1.4336818659       18.1862953299
  H        16.8498021209        2.5391313839       20.5133489792
  H        17.4585039782        3.7758828297       21.6472070294
  C        17.7091868508        1.8009070705       22.2952167945
  S        11.7351269793        6.4453619328       11.9131944211
  C        11.5363209424        9.1433670287       11.4723957468
  H         5.1378858532       -0.3568401851       38.4569011223
  H         4.9211963583       -2.0641128899       38.8974625389
  H         5.5806021379       -1.5500755506       37.3519543077
  H         1.3577127349       -1.6185279713       17.6603417163
  H         2.3802358487       -2.2072056544       18.9195689866
  H         3.1438489413       -1.6290298512       17.4971928445
  H        17.1611419859        0.8942725161       22.3598627788
  H        17.8834719860        2.1107892993       23.3597274930
  H        18.6659904979        1.6598779139       21.9134233747
  C        12.0810689415        7.3376703965       10.3337961555
  N        11.8853344659        8.6552386237       10.3222108011
  O        11.1208923508       10.3110314580       11.6023867294
  S        12.2643968756        6.5112746437        8.8016476094
  C        11.9055109972        9.4798092345        9.1361498306
  H        12.3519593117       10.5154295609        9.2359359428
  H        12.6611365290        9.1333645389        8.3518145914
  C        10.5331913304        9.5433600201        8.4359867116
  H         9.7550742344        9.7309242541        9.1446643751
  H        10.6271054833       10.3948930077        7.8264530443
  H        10.3848996881        8.5899848584        7.9351566757
  H         2.1708593459        3.0853442953       12.9098110122
  C         2.7289171058        2.1765336222       12.6341036845
  H         2.2001256353        1.3192464942       13.0352849570
  C         2.3249189628        1.9976652633       11.1996004066
  C         4.1789146273        2.2304829923       13.0532318988
  C         3.2659749021        2.5559948103       10.1206533943
  H         1.3555851622        2.4174651959       11.1029247245
  H         2.2958026002        0.9339654627       10.9960601088
  H         4.7701090030        1.2735707772       12.7777258835
  H         4.2713082879        2.6087759198       14.0768412065
  H         4.5325085435        3.0194315484       12.3786156077
  C         4.2318096885        1.4793993616        9.5184300810
  H         2.6960694852        2.9127471394        9.2484515225
  H         3.7664700946        3.4694296753       10.4647863470
  C         5.1258321339        1.9247038457        8.2829334850
  H         3.6894096383        0.6271772265        9.2180474427
  H         4.8818986751        1.0702195226       10.3034601850
  C         6.3629196665        2.8155281744        8.5988492265
  H         4.5689177747        2.6469414904        7.7088893056
  H         5.4124585108        1.0993412240        7.6011273765
  C         7.6292943340        2.0617885784        8.9886823166
  H         6.5639649639        3.4532225443        7.7129179411
  H         5.9550393855        3.3985917809        9.4039454319
  C         8.9023130227        2.9926035848        9.2637634371
  H         7.8600172847        1.1859903795        8.3506314144
  H         7.2974303104        1.6261729463        9.8932942624
  C         8.4600303544        4.2803249499        9.8820388355
  C         9.3664171396        3.5992052241        7.9737170297
  C        10.0624773695        2.2185967150       10.0222893606
  C         8.7109988468        5.3730537182        9.0702458090
  C         7.9919220791        4.6186132285       11.1796260963
  C         9.2290555087        4.9392814059        7.8250058173
  C         9.9208162768        2.9215388323        6.8703577602
  H         9.7174300090        1.7212637864       10.9330136067
  H        10.3766604099        1.4339855284        9.2819380589
  C        11.3413863799        3.1106289430       10.2452221458
  S         8.2597977308        6.8633571878        9.8515558596
  C         7.8961018559        5.9774592943       11.3284151896
  H         7.8362745242        3.8583654677       11.8606750655
  C         9.6373878016        5.4895017558        6.6151222349
  H        10.1932122970        1.8974018402        6.9115264038
  C        10.2879942115        3.5178966135        5.6877537481
  H        11.0400769837        4.1159443393       10.5794174285
  H        11.8026335811        3.3216052789        9.2925505285
  C        12.2776417442        2.5465981827       11.2667828517
  C         7.5180603730        6.6607678654       12.6235402734
  C        10.2255546565        4.8505839232        5.5465308573
  H         9.5359574771        6.5641450613        6.5923656743
  C        10.7478885915        3.0920136475        4.4529676960
  H        13.3494351399        2.8603774179       11.1905357673
  H        12.1851166404        1.4904323468       11.3546967070
  C        11.8888302989        2.9507479585       12.6357529042
  C         7.3748226082        8.0597639056       12.8256293724
  C         7.2739883559        5.8773786680       13.7874226045
  C        10.6775626456        5.5564982208        4.2603812603
  C        10.9974137183        4.1709802354        3.6200203503
  S        10.9939482158        1.5708813065        3.7272954386
  H        12.4486027743        3.7442878361       12.9574273107
  H        10.8895726797        3.3789100901       12.6340341875
  C        12.1975033624        1.9648551102       13.7668363548
  N         7.4707075416        8.9825703564       11.7775291296
  C         7.1016526142        8.7051492103       14.0219744316
  C         6.9990789476        6.4646482380       15.0060961271
  H         7.3404254254        4.7919886937       13.6724751933
  C        11.9585368937        6.3691150628        4.4219946203
  C         9.5100149831        6.2604358454        3.5401335275
  C        11.4951834237        3.7419685744        2.4095010662
  C        11.4928265833        2.3950308460        2.2738928512
  H        13.1598697360        1.5639157564       13.6613976485
  H        11.4734010595        1.1834641325       13.7424772448
  C        11.9212418376        2.6284886606       15.0581148505
  S         7.2986598703       10.5602527837       12.4068802257
  N         6.9115645396       10.1428037662       13.9589552957
  C         7.0082221803        7.9367862151       15.1863026556
  H         6.7842555491        5.8049907876       15.7829884390
  H        11.6990028454        7.1419202219        5.2118588098
  H        12.0412670296        6.9999372507        3.5426788351
  C        13.2051508869        5.5799019882        4.8446674959
  H         9.1003580479        7.1175618448        4.0614580211
  H         9.8161108431        6.6936914498        2.5869287593
  C         8.3361642051        5.3587804460        3.1318810142
  H        11.7547684586        4.5319568412        1.6897820232
  C        11.7512253322        1.6814899818        0.9784305404
  H        11.8178611588        3.6857116331       15.1356326816
  H        10.9051955208        2.2979649493       15.3565787373
  C        12.9945892225        2.2413620152       16.0423555356
  C         6.7895087350        8.6648788588       16.4019975469
  H        12.9706381726        5.0522896747        5.7944372585
  H        13.4194983504        4.7618772941        4.1820095173
  C        14.4174004570        6.5713414319        5.0410502442
  H         8.1172412365        4.7266084974        3.9609177831
  H         8.6588655697        4.7388978169        2.2746326710
  C         7.0587119687        5.9875853922        2.6655951452
  C        11.7009890258        0.2618071304        0.8483941082
  C        12.0188149046        2.4234942897       -0.2478643893
  H        13.9091140323        2.7682191951       15.7939396611
  H        13.3972793223        1.2397337922       15.9834383118
  C        12.6738305779        2.5202463892       17.5329093769
  H         6.8792609863        9.6896287333       16.2819116770
  C         6.5657425713        8.2538299425       17.6753834856
  H        14.0159279072        7.5908377665        5.2076431317
  H        14.9627292246        6.5465219819        4.0786964519
  C        15.3351413917        6.2671501042        6.1554371611
  H         6.1732911131        5.2455227186        2.6729135946
  H         6.7618041565        6.6555465659        3.4959571582
  C         7.1069220636        6.6961209304        1.3581072517
  N        11.3493340106       -0.6070916044        1.8587528492
  C        12.1516551246       -0.3664633736       -0.2944202886
  C        12.3794513031        1.7941889314       -1.4340594271
  H        11.9361430283        3.5060785046       -0.2169022317
  H        13.5962719315        2.4297188578       18.1602866569
  H        11.9347960405        1.8029498780       17.9052790875
  H        12.3324721134        3.5497277393       17.5840215859
  S         6.3413472322        6.6092561803       18.2213593532
  C         6.4620007619        9.2466070306       18.7568117838
  H        15.9677158237        7.0857055277        6.2833627112
  H        14.8079069851        6.2277194102        7.0867521043
  C        16.2127557602        5.0405121413        5.8452196258
  H         7.7097712274        6.1284465125        0.6560812479
  H         7.6018887771        7.6470879483        1.4376287398
  C         5.6989135929        6.8827928426        0.8103844892
  S        11.5504055465       -2.1427084381        1.2993495725
  N        12.1020966835       -1.7276738886       -0.1799473947
  C        12.4614866537        0.2903399010       -1.5061704986
  H        12.6009886369        2.3370525148       -2.3546576314
  C         6.1505252619        7.2882604662       19.8678414525
  N         6.1169451217        8.6621245596       19.9050563094
  O         6.5134772743       10.4406292143       18.4882807782
  H        15.6673771184        4.2415177360        5.3741497180
  H        16.9445405416        5.4085425264        5.0941108792
  C        16.9580793370        4.4278460732        7.0421960357
  H         5.7398705010        7.3138014606       -0.1790271725
  H         5.1519946421        5.9583231419        0.6978516146
  C         4.9787284238        7.8548109785        1.7096196282
  C        12.7520905874       -0.4703393771       -2.6552674497
  S         5.6626904963        6.4381007866       21.3270760164
  C         5.9478285531        9.4263251144       21.1613104351
  H        16.2520933743        4.4294273389        7.8346781319
  H        17.1741541218        3.3639699913        6.8824792706
  C        18.1472610170        5.3642568313        7.4783049954
  H         5.7231509176        8.2855793657        2.4449938073
  H         4.2356552193        7.3730306252        2.2504917350
  C         4.4268888735        9.0837394187        1.1022910183
  H        12.2436430974       -1.4014357821       -2.7015082537
  C        13.2055104252       -0.1679746893       -3.8532050671
  H         4.9714346666        9.1863706938       21.6420453011
  H         5.7765634222       10.4491233299       20.8687337237
  C         7.2242020812        9.4357013724       22.0224556467
  H        18.4601349919        5.0949726414        8.4895189680
  H        17.8150167753        6.4044472344        7.5486147038
  C        19.3777523585        5.2654235575        6.5088760503
  H         5.2811107926        9.6836406355        0.6999770630
  H         3.7833482988        8.8231434862        0.2857581619
  C         3.6429745089        9.9242783307        2.1263091019
  S        13.8003915896        1.3081396994       -4.4518817829
  C        13.1359155613       -1.2724752175       -4.8788222239
  H         8.0781153368        8.8717449759       21.5980985123
  H         6.9504524198        8.9796057860       23.0413549219
  H         7.5534141415       10.4655436389       22.1744566836
  H        19.3766042473        5.8867945608        5.6548639774
  H        20.3461352826        5.5231056293        6.9095732497
  H        19.3803083916        4.2420928940        6.0072450242
  H         2.8752760431        9.2819294548        2.6004770535
  H         4.3664121874       10.2601132707        2.8742897252
  H         3.1302220960       10.7686033095        1.8119785492
  C        14.0180667367        0.4677240857       -5.9911603980
  N        13.6277877419       -0.8030540481       -6.0144149225
  O        12.7455107703       -2.4218365306       -4.7320609458
  S        14.2884437371        1.2701082537       -7.4690425331
  C        13.6476858772       -1.6040110801       -7.2034870212
  H        13.8438289346       -2.5465558007       -6.8372033358
  H        14.4766118537       -1.3173000313       -7.7958087543
  C        12.4679462074       -1.3906470390       -8.0763666174
  H        11.8639965714       -0.7467702193       -7.5817242527
  H        11.9685302669       -2.3482637974       -8.3463309658
  H        12.8189737409       -0.9503083169       -8.9948587266
