352
 i =    15300, time =     7650.000, E =       113.9226400195
  H         9.6530779252        5.5027562261       33.0713052664
  C        10.6252416506        6.0015450730       32.9706867934
  H        10.6190463970        6.8649716781       33.6575762507
  C        10.7805962233        6.3947144787       31.4978720314
  C        11.6789299673        4.9753193878       33.3382504001
  C        10.8138850945        5.2623319383       30.4525032137
  H         9.8432248272        6.8716555671       31.3098707450
  H        11.5629728816        7.1138236658       31.2064041363
  H        12.5867360553        5.1976162064       32.7779491617
  H        11.8707692668        5.0503813252       34.3992292100
  H        11.3617422563        3.9784779396       33.0980278523
  C        10.0356888371        5.5871998650       29.0622622575
  H        10.5514695140        4.3381528967       30.9252891506
  H        11.8483644412        5.0185944979       30.1767185164
  C        10.7748646557        5.4453343264       27.6664395901
  H         9.0724515725        4.9796313720       29.0303078192
  H         9.6092699399        6.5572448141       29.1002989344
  C         9.8117161708        4.8974967030       26.6142395606
  H        11.5624740711        4.7596270153       27.8375400317
  H        11.2807337495        6.3096361801       27.2412299209
  C         8.7761558703        5.9406233383       26.3082725602
  H        10.3561448973        4.7017247408       25.6683631351
  H         9.4835138946        3.9767464655       27.0003007841
  C         7.6486692162        5.2899416458       25.5010423605
  H         8.2454773355        6.2940298885       27.2234865363
  H         9.1603546093        6.7293225442       25.6554232742
  C         7.1739713633        3.9452140239       26.1454512477
  C         8.0420102746        4.5593579092       24.2354652859
  C         6.3148642108        6.1373704079       25.3626053800
  C         7.2364743642        2.7667991610       25.2950913892
  C         6.6466470917        3.5917763491       27.3803753870
  C         7.8080326093        3.2180061117       24.0888753237
  C         8.4153824818        5.1223137021       23.0340089748
  H         6.6400622084        7.0107339029       24.8188432092
  H         6.0117520906        6.3871873201       26.4310201176
  C         5.0866205278        5.4019044579       24.7038767640
  S         6.7281572687        1.3951355649       25.9416062400
  C         6.3901476698        2.2334840429       27.4323880389
  H         6.5456889603        4.3355398498       28.1370855263
  C         8.0946876559        2.5106147767       22.9841130013
  H         8.3273855459        6.2083786113       23.0317598517
  C         8.7454335258        4.4171878405       21.9303366576
  H         5.4222617843        5.2119452951       23.7515641764
  H         4.6464645708        4.4672513503       25.1578943260
  C         3.9376375824        6.3921914437       24.5236328160
  C         6.0186892045        1.4120046542       28.6305699524
  C         8.6419519615        3.0598060503       21.8560275625
  H         7.7821766679        1.4912939385       23.0418843346
  C         9.0925022348        4.8320033199       20.6965921179
  H         3.2176428486        5.9679978158       23.8909482982
  H         4.4679804490        7.1089658247       23.8788720641
  C         3.2167494589        6.9509160392       25.7250133631
  C         5.9264788998        0.0395389655       28.7812302581
  C         5.4752563430        2.2020945816       29.7922891402
  C         8.9381440381        2.3356673039       20.5655145030
  C         9.2232054556        3.7399354353       19.8620148212
  S         9.4611897081        6.3525147633       19.8989545018
  H         2.3595828452        7.5772503105       25.5885710420
  H         3.9965420421        7.4769960270       26.2446353091
  C         2.6891292158        5.7628068566       26.6874600279
  N         6.1266789116       -0.9106990097       27.7819084716
  C         5.7116476661       -0.5619473206       30.0503964636
  C         5.1818194832        1.5863288590       30.9863678576
  H         5.3693910048        3.2690934350       29.6652329739
  C         7.7284638110        1.5711757945       19.9431560682
  C        10.2232906171        1.5036567016       20.6140210340
  C         9.5846607202        4.1751309419       18.5750774879
  C         9.7091408359        5.5149036494       18.4038257901
  H         2.1607174961        4.8967463450       26.1002569406
  H         3.5128498023        5.3570380490       27.2832662832
  C         1.7397669048        6.2755163568       27.7573984757
  S         6.1902951598       -2.3502164534       28.4875684021
  N         5.8818041702       -1.9473621947       30.0123324646
  C         5.3723160654        0.1428003052       31.1822336024
  H         4.7937003041        2.3347426350       31.7597084374
  H         7.6529240225        0.6141282222       20.4906195567
  H         7.9339826457        1.3766047447       18.8932284827
  C         6.4541777826        2.3681850247       19.9668467620
  H        10.2469263500        0.9159201949       19.6973534169
  H        10.0651429708        0.8284564199       21.5282603488
  C        11.5663194936        2.2520281027       20.9086778744
  H         9.6342327450        3.4340369364       17.8334327511
  C        10.0026643970        6.1786928083       17.1271045215
  H         0.8309784980        6.6532737786       27.1978241325
  H         2.1477593980        7.2043748157       28.0833622150
  C         1.3422885340        5.3021881175       28.9321894031
  C         5.2099147951       -0.5738435755       32.4441786664
  H         6.3967643219        3.3954031669       19.5304769175
  H         6.1368951828        2.4926651308       21.0520182614
  C         5.3140128852        1.5410464077       19.3492434572
  H        11.3819737327        2.8947423688       21.7542903860
  H        11.8238844225        2.8692865306       20.0685539197
  C        12.5861905242        1.1707995322       21.0671261848
  C        10.1796984734        7.5947370037       16.8924565851
  C        10.2953507157        5.3367372098       15.9590606200
  H         0.5723722132        4.6253084860       28.6710114581
  H         2.1628657771        4.6537021513       29.1243116210
  C         0.8874314249        6.0220783318       30.1854769825
  H         5.5456150678       -1.5998166775       32.3605187692
  C         4.7586554755       -0.2057720237       33.6708462309
  H         5.0555805287        0.7871855343       20.0805742738
  H         5.6929328603        1.1738902778       18.4130608867
  C         4.1540462357        2.3854805290       18.8774419914
  H        12.1698330195        0.5049587661       21.7258782618
  H        12.7675154020        0.5337070130       20.1513761628
  C        14.0396076051        1.6366863000       21.5464822761
  N         9.8763818417        8.5748799980       17.9064589516
  C        10.4474428911        8.1726015085       15.6585588980
  C        10.5112052679        5.8685752392       14.7004591142
  H        10.3655115242        4.2646332019       16.0232952070
  H         0.3231834348        5.3418008108       30.8047053174
  H         1.7061365323        6.5081195385       30.6567326637
  H         0.2469566174        6.9501938939       29.9628939445
  S         4.3689517503        1.3765615066       34.2002613369
  C         4.7430943731       -1.2451592182       34.6871761332
  H         4.0813024265        3.2190297599       19.5389107111
  H         4.4420805858        2.7815249060       17.9590922994
  C         2.8359985524        1.5462443294       18.7033883278
  H        14.3605141116        2.3771569951       20.7703685195
  H        14.7807904036        0.8504531071       21.5338589158
  C        14.0621303565        2.4753371192       22.8692189177
  S         9.9607639149       10.0496409962       17.2045765846
  N        10.4063632264        9.5436975434       15.7195762059
  C        10.6308607471        7.3848386179       14.5379376374
  H        10.5928357472        5.2238053119       13.8334078993
  C         4.2446247226        0.5838848765       35.7453865033
  N         4.1633673328       -0.7431759857       35.7327150744
  O         4.9372955765       -2.4339016902       34.4283819373
  H         2.0219885719        2.2804328663       18.4906126232
  H         2.6025402010        1.1162307548       19.7394687817
  C         2.8677956158        0.5004329706       17.6123636395
  H        13.3112657202        3.2444389065       22.6873138177
  H        13.8363632368        1.9475720473       23.7115982335
  C        15.3126120196        3.2146817730       23.1288559147
  C        10.9379785076        8.0898181082       13.3485689631
  S         3.9551901830        1.3807684278       37.2363951906
  C         3.8607451751       -1.6266554008       36.8777550893
  H         2.2840375495        0.8215985109       16.6813438439
  H         3.8736971045        0.2261459541       17.3337698295
  C         2.2465874884       -0.8332862721       18.0317131564
  H        15.1580532535        3.5386752797       24.1248709967
  H        15.4119487409        4.0744757153       22.4809779915
  C        16.5520527243        2.3100860610       23.1534395131
  H        10.8360662374        9.0612189064       13.4802542351
  C        11.3767409149        7.6546055614       12.1584351976
  H         3.1220924576       -1.2242482676       37.4863087530
  H         3.3161175557       -2.5262729786       36.5545151009
  C         5.0928735602       -1.5721571437       37.8060917929
  H         1.4112390032       -0.6387132001       18.6452047125
  H         2.9822838424       -1.3368076741       18.6784475636
  C         1.8971713660       -1.7215352258       16.7523414320
  H        16.8146868170        2.2354517663       24.2155262647
  H        16.2894851657        1.2888312467       22.8719715789
  C        17.6832037614        2.8228594886       22.3188964637
  S        11.8243967352        6.0046073894       11.6876937491
  C        11.6310733499        8.7405520309       11.1720371868
  H         5.6164612844       -2.5314634143       37.6716842021
  H         5.8088289931       -0.8415743719       37.4511551117
  H         4.8945764816       -1.3750292811       38.8439864164
  H         1.5278689627       -2.6610926094       17.1535857209
  H         2.7921161257       -1.9172142376       16.1933882659
  H         1.2877533373       -1.1684125014       16.0547178449
  H        17.9615201522        3.8386736983       22.5527838792
  H        17.4742096589        2.6965924054       21.2664337117
  H        18.6437107595        2.2975616255       22.5660790120
  C        12.2141284794        6.7280943732       10.1800836639
  N        12.1224665884        8.0911784171       10.1118220513
  O        11.6248440526        9.8928235425       11.4379600821
  S        12.9608286189        5.9171501073        8.7380105068
  C        12.4044882865        8.8106659178        8.8690249301
  H        12.6282044416        9.8508367497        9.1003916015
  H        13.3579204302        8.5469637799        8.3652137803
  C        11.3911563007        8.9254441258        7.7154017893
  H        11.6115658046        9.7786718030        7.1064963160
  H        11.2391092082        8.1698741858        7.0058839661
  H        10.4129912166        8.9647301519        8.0962423646
  H         4.0499047930        1.5491392628       13.0844917139
  C         3.7197033903        2.5653350545       12.9246200322
  H         4.6082101173        3.1766660695       12.7809468240
  C         2.9318178576        2.6896057498       11.5818044139
  C         2.8921256428        3.0674041122       14.1730608810
  C         3.7350474412        2.7499200394       10.2871652255
  H         2.3981224778        3.7077381765       11.6978313066
  H         2.1676568932        1.9541338540       11.5364073609
  H         2.2932076311        2.2368035050       14.5853514437
  H         2.3508763037        3.8852333046       13.7781083145
  H         3.6646170354        3.3421246729       14.9444391347
  C         4.6552246812        1.6071283797       10.0998719221
  H         3.0401928097        2.7334066340        9.4038374748
  H         4.2358656026        3.7193335665       10.1949545425
  C         5.2243528990        1.5102742891        8.7017543107
  H         4.0331076316        0.7073923517       10.2947270301
  H         5.4240084092        1.6758502211       10.9169359742
  C         6.4363101278        2.3811394864        8.6064467988
  H         4.5788030227        1.8943948320        7.9228556223
  H         5.5603930588        0.4558922884        8.4614663022
  C         7.7707169752        1.7456079374        9.1135987638
  H         6.5580597294        2.6983421016        7.6236234080
  H         6.2870553151        3.3371177852        9.1994225389
  C         9.0314820290        2.6404163952        9.2825640225
  H         8.0295961004        0.8033110591        8.6195140166
  H         7.4521829594        1.5049423824       10.1997129616
  C         8.6720061333        3.9558260933       10.0934672675
  C         9.5266606799        3.3599870206        8.1358795786
  C        10.1371726276        1.8581027890       10.0648761091
  C         8.9523754733        5.1013495754        9.3642355200
  C         8.1488370237        4.3670747323       11.3664514405
  C         9.4685531319        4.7200300911        8.1261127948
  C         9.9547822347        2.8129029300        6.9318556354
  H         9.7599003511        1.3941716347       10.9678562170
  H        10.3955002716        0.9636363579        9.4829025621
  C        11.3847322448        2.6848211388       10.2616120314
  S         8.5656335833        6.5841182303       10.0936962969
  C         8.0908879764        5.6910717192       11.4857536963
  H         7.7793340842        3.6054916224       12.0654280771
  C         9.8002767039        5.3593903500        6.9420474579
  H         9.7705311650        1.7129879196        6.9117649392
  C        10.2468873842        3.4717230296        5.8102151121
  H        11.0750314612        3.5424933695       10.8275904392
  H        11.7743561998        3.0713284754        9.3173200510
  C        12.3887012315        2.0885773728       11.1963039425
  C         7.6141536714        6.3884510868       12.7169433990
  C        10.1807073754        4.7785750923        5.7191722234
  H         9.6957224709        6.4193862781        6.9437886788
  C        10.6715845532        3.0375449624        4.5411859777
  H        13.2795540562        2.7772751564       11.3118702609
  H        12.8087606642        1.2030611993       10.6714288829
  C        11.8246663914        1.6728385493       12.6245871080
  C         7.6706223316        7.8030528379       13.0308631819
  C         7.2904884756        5.5369619749       13.8736663307
  C        10.5838632099        5.4501744837        4.3964787666
  C        10.8312997750        4.1205468818        3.7108149771
  S        11.0994001337        1.5035316140        3.7796185713
  H        10.7333390173        1.8346229064       12.7158265043
  H        11.9833923847        0.5413631109       12.7213483895
  C        12.5229310232        2.3123686045       13.8082772957
  N         7.8660720886        8.7794448414       12.0770603476
  C         7.2671911027        8.3244364392       14.2498509094
  C         6.9403491189        6.1170039310       15.1335971475
  H         7.2703240094        4.4413270308       13.7890759465
  C        11.8391286752        6.3898001521        4.5188287890
  C         9.2318098411        6.1077248258        3.8089850126
  C        11.1319111964        3.7716722380        2.4200758045
  C        11.2758356788        2.3875958309        2.3415167434
  H        11.8700897742        3.1318452932       14.1224018318
  H        13.3976547394        2.7438905533       13.4538206306
  C        12.8364438245        1.3438184652       14.9720639470
  S         7.8421308916       10.2457186125       12.7940155210
  N         7.3362973694        9.7535345572       14.2114553507
  C         6.9687991096        7.6078443181       15.4332368201
  H         6.6670770601        5.3278476157       15.8324253750
  H        11.6189894902        7.2009521660        5.2287736564
  H        12.1496719163        6.9560508860        3.6382468662
  C        13.1619820128        5.6215992713        4.9352802012
  H         8.9022764374        6.6807670829        4.6500650587
  H         9.6837384963        6.8128138495        3.1003814457
  C         8.1354642144        5.3085954887        3.1783037766
  H        11.2955769874        4.6082175420        1.7295428327
  C        11.5992373206        1.6153777334        1.0851686195
  H        11.9587747313        0.7976929931       15.2711956613
  H        13.5484774332        0.4966007379       14.6687704299
  C        13.4309250280        2.0527136709       16.1415142395
  C         6.8193989106        8.2320127573       16.7338274550
  H        12.9728903405        4.8612562540        5.6719502132
  H        13.5676581298        5.0936858602        4.0388611275
  C        14.1768455052        6.5318094540        5.4848439419
  H         7.4880684078        4.8185877287        3.9123153616
  H         8.5686119528        4.7404018739        2.3859989493
  C         7.2648461410        6.2956237772        2.4284166741
  C        11.7079273603        0.1803396077        0.9191926711
  C        11.7895074206        2.3620437148       -0.1625715854
  H        13.4863723250        3.1364831262       15.9018129833
  H        14.4375668271        1.7768332148       16.3102210055
  C        12.6067531905        1.8925970888       17.3958523561
  H         7.0563711431        9.3189763787       16.8457934910
  C         6.4810741789        7.7296444855       17.9272892817
  H        13.9790828468        6.9252932519        6.4217717018
  H        14.1862663502        7.3942047508        4.8510693724
  C        15.6414957894        5.8784718428        5.4231384281
  H         7.2069098431        7.1928081909        3.0726087626
  H         7.7907881941        6.5381281616        1.4895615326
  C         5.9576848259        5.7317064798        1.9583672128
  N        11.5930955680       -0.7017869111        1.9915247136
  C        11.9874949475       -0.4463199301       -0.2936970623
  C        12.1691868940        1.7632492391       -1.2876481959
  H        11.5366869425        3.3563768794       -0.2631411995
  H        12.8964752933        2.8015204995       17.9762237623
  H        12.8664134337        0.9962771157       17.9350741136
  H        11.5320880092        1.8911300317       17.1520977244
  S         6.1294666238        6.0535405013       18.2474264171
  C         6.4005729263        8.6613827744       19.0438805021
  H        15.6163549968        4.8279999949        5.1845432028
  H        16.1594558971        6.3908340759        4.6732430770
  C        16.3244903558        5.8415951685        6.7244168245
  H         5.3235693990        5.6227942208        2.8054200292
  H         6.0467599100        4.7879409186        1.4991231259
  C         5.1313646941        6.6276433597        1.0574430890
  S        11.8002398162       -2.2241746106        1.3976493924
  N        12.0817396799       -1.8507048797       -0.1481338173
  C        12.1593228440        0.2891277656       -1.5430934416
  H        12.3857995759        2.4753697003       -2.0641186228
  C         5.8586572542        6.7044969863       19.9280064778
  N         5.8204926517        7.9965071308       20.0545300275
  O         6.5576803883        9.9274632552       19.0347335900
  H        16.3901245003        6.8889375957        7.2018641527
  H        15.6701535336        5.2579723583        7.3986632992
  C        17.6978438031        5.2274209121        6.8719943502
  H         5.6941984464        7.0678728091        0.2054437194
  H         4.3489223460        5.9698959785        0.5870598908
  C         4.2952571057        7.6705441081        1.8102480271
  C        12.5620911101       -0.4050866630       -2.6623080401
  S         5.2476973483        5.6578669541       21.1484089244
  C         5.4898448361        8.6649269255       21.3116090396
  H        18.0588296698        5.5474010276        7.8554522244
  H        17.5197574247        4.1600467102        6.8474285034
  C        18.7195068776        5.7962652911        5.9774179062
  H         4.7404401707        8.1719647953        2.6707897450
  H         3.4572060655        7.1139271105        2.1991437135
  C         3.6359542202        8.6683990394        0.8275434379
  H        12.4558046630       -1.5035948866       -2.6148142969
  C        13.1385882868        0.0359091946       -3.8992497626
  H         4.5925136456        8.1676401634       21.7590122784
  H         5.1746355289        9.6736758450       21.2904939307
  C         6.7757084244        8.5682969229       22.1489994177
  H        18.3580263717        6.7953095747        5.9098601145
  H        18.5410712615        5.4312618655        4.9609239623
  C        20.1070434689        5.7681496565        6.5160261459
  H         3.4373743227        8.2281548048       -0.1127638213
  H         2.6300330468        8.9622473093        0.9859297097
  C         4.4150544015        9.9987687306        0.6139677998
  S        13.6157603200        1.6011589968       -4.3883477228
  C        13.3705325103       -0.9979664014       -4.9775050916
  H         7.3749875839        9.5133849969       22.1629925602
  H         7.5138989742        7.8409703719       21.8158139248
  H         6.5861091669        8.4795202033       23.2006992777
  H        20.7600227967        6.4128677083        5.8724790168
  H        20.2238178774        6.1057173443        7.5584306894
  H        20.5856188111        4.8257409785        6.4048778966
  H         5.3331521847       10.1303591945        1.1376290846
  H         4.7382855894        9.9382872687       -0.4254072448
  H         3.9622978576       11.0170274255        0.7380314131
  C        14.1686891099        0.9359542075       -5.8854693952
  N        13.9394625022       -0.3882422973       -6.0440459850
  O        12.9606844959       -2.1239003050       -5.0056328893
  S        14.6952475948        1.8874077725       -7.2531195207
  C        14.1798280396       -1.2615974079       -7.2084389101
  H        14.2575176136       -2.3260057783       -6.9357796832
  H        15.0143245684       -0.9061861730       -7.8191342405
  C        12.9927824163       -1.1312807383       -8.1589347941
  H        13.0475343450       -0.2095060305       -8.6497105647
  H        11.9932116686       -1.2678200440       -7.6393918318
  H        13.0969804564       -1.8442966920       -8.9441242603
