352
 i =   106600, time =    53300.000, E =       100.0055748754
  H        10.7689053585        4.5972271621       32.0781704718
  C        10.8267722944        5.6303882069       32.2976827742
  H         9.8138182529        6.0109403350       32.5616073720
  C        11.3459936418        6.3616712379       31.0436818196
  C        11.7746728097        5.8236922755       33.5389120344
  C        10.1912507703        6.5852100127       30.0556705944
  H        11.8552341172        7.2905088545       31.3840832755
  H        12.0383253406        5.6765591681       30.5989733011
  H        11.2957463557        5.4295604431       34.4015048100
  H        12.7285665803        5.2801547092       33.4306461329
  H        11.8990291088        6.8918895177       33.7072893493
  C        10.1665002315        5.5090860885       28.9204255610
  H        10.3372959025        7.6214039206       29.6582087537
  H         9.2230669437        6.6138060912       30.5201784674
  C        10.5357330997        5.9852301034       27.5439147513
  H        10.8248327578        4.7863823025       29.2453281913
  H         9.1874933511        4.8355901173       28.9494407347
  C         9.6371512299        5.4145329539       26.5085229743
  H        11.4756747406        5.4318002629       27.3603161938
  H        10.7166065912        6.9869153684       27.5595456927
  C         8.3655496817        6.1077469483       26.3251599508
  H        10.1177779993        5.3789788339       25.5413665995
  H         9.5696077446        4.3434390290       26.8023290757
  C         7.3709210445        5.3512418783       25.5612190604
  H         8.0645906514        6.3336706014       27.3328416180
  H         8.5068999381        7.0647854519       25.8484168551
  C         6.9966718950        4.0390124924       26.2777463258
  C         7.8093178147        4.6017326210       24.3177649331
  C         6.0890006237        6.3058757697       25.3178916506
  C         7.1709484738        2.9254891285       25.4240077022
  C         6.5496953206        3.6447919456       27.5788738167
  C         7.6383344537        3.2644353533       24.1890959379
  C         8.2791828574        5.1644504883       23.1333305084
  H         6.4243452387        7.0350668114       24.5241727572
  H         5.8156092045        6.9181854942       26.1965804043
  C         4.8250045321        5.4861288888       24.9413895702
  S         6.8842911675        1.4299506739       26.1627131430
  C         6.4802512671        2.2834390977       27.6093405399
  H         6.3529443426        4.3891816041       28.3359103881
  C         8.0398573694        2.6433583475       23.0133633726
  H         8.2628132005        6.2134510559       23.1749785386
  C         8.6553490703        4.5485303426       21.9373219945
  H         5.0181590429        5.0343749717       23.9684215927
  H         4.6915164409        4.7284100074       25.5814345192
  C         3.5618797844        6.2564747063       24.9931902760
  C         5.9503029960        1.6079692507       28.7728188000
  C         8.5670834910        3.2122399828       21.8887268530
  H         7.8769693118        1.5406394599       23.0620231790
  C         9.0357101040        5.0093291414       20.6333396516
  H         2.7879791242        5.9310297598       24.2729581765
  H         3.8250333952        7.1768766085       24.5836422352
  C         3.0463586270        6.3882731819       26.4402294056
  C         6.0615919989        0.1656756958       28.9908089434
  C         5.4473003633        2.4029749743       29.9890157364
  C         9.0249864254        2.6070491348       20.5664294085
  C         9.1081396714        3.9187319179       19.7587385669
  S         9.3078526168        6.5122952741       19.8641000288
  H         2.2667809846        7.1196093230       26.4577420898
  H         3.7901784726        6.7944003603       27.1160155808
  C         2.4522766680        5.1259545755       26.9682823712
  N         6.5455754554       -0.8202352424       28.1456911018
  C         5.7726882378       -0.4430475146       30.2097139117
  C         5.2303344405        1.7137456524       31.1842040382
  H         5.2820379604        3.4208872410       29.8629977208
  C         8.0465922830        1.6609811253       19.9952041809
  C        10.4921941831        1.9723320248       20.8260346381
  C         9.5608899540        4.3099945854       18.4967996028
  C         9.7893835441        5.7184390236       18.3849466878
  H         1.7484720814        4.6510007843       26.2424954960
  H         3.2265241602        4.4056197792       27.2811262140
  C         1.5782214642        5.3058342156       28.2026805216
  S         6.3718874848       -2.3091503628       28.7269714035
  N         5.7952773636       -1.8018660953       30.1827733763
  C         5.3078653462        0.2450624799       31.3300639182
  H         4.8358246353        2.2663468707       31.9895818657
  H         7.6443147090        1.0528457922       20.8333405194
  H         8.4568845301        0.9438721785       19.2736418810
  C         6.9459437445        2.3968947442       19.2275819293
  H        10.8897430344        1.7776650032       19.8268150545
  H        10.4118575358        1.0033701291       21.2366244703
  C        11.5085781007        2.8649148655       21.5568415862
  H         9.8953187887        3.5967968400       17.7301045557
  C        10.3214269472        6.3988213565       17.1631668088
  H         1.1696505122        4.2761338250       28.4561107856
  H         0.7583310717        5.8971856740       27.9387434629
  C         2.2868459385        5.8444145173       29.4481758369
  C         4.9669473604       -0.4751091358       32.5311683085
  H         7.1891999432        2.8414825684       18.3467321173
  H         6.5145293616        3.2169998995       19.8200663795
  C         5.7507429708        1.4279067318       19.0185819364
  H        11.0740989882        3.0588092685       22.5441661727
  H        11.6740201831        3.7558403750       20.9497492892
  C        12.8953902302        2.2449925243       21.5074070232
  C        10.2251233091        7.7517797243       16.8925112894
  C        10.5797968349        5.5952465050       15.8931878804
  H         3.0651481553        6.5392748200       29.2324119945
  H         1.5654490646        6.4288995698       30.0349299548
  C         2.8592204985        4.7755432954       30.3242545643
  H         5.0180298077       -1.5147342833       32.5208558501
  C         4.5829403114       -0.0998592336       33.8302740713
  H         5.4535305128        0.9974777151       19.9704306135
  H         6.0422535327        0.6578016805       18.2897190964
  C         4.4929423998        2.2377448560       18.5851964091
  H        12.7598802630        1.2945718327       21.9444585561
  H        13.2537066561        2.2551453760       20.4664614297
  C        13.9916865661        3.0429535779       22.2444616511
  N         9.7800262067        8.6746718619       17.8674127196
  C        10.4898635881        8.3680488657       15.6370338477
  C        10.8980155299        6.1996733097       14.6701586583
  H        10.5049405176        4.5113407033       15.8802230083
  H         3.8440471006        5.0508984108       30.8049930573
  H         2.2748850475        4.4597340526       31.2034629443
  H         3.1335736584        3.8720596881       29.7824831018
  S         4.3937531276        1.4654184236       34.3878733045
  C         4.4988379120       -1.1337684933       34.8572262539
  H         3.9690713622        2.7456069267       19.3767539184
  H         4.8317114228        3.1270147217       17.9893962492
  C         3.4655750764        1.3140244650       17.8136908938
  H        13.7914566215        2.8465144982       23.2907685919
  H        13.9400026584        4.1607944145       22.0859413526
  C        15.3798961360        2.5656109834       21.7599142827
  S         9.7251032851       10.1358911416       17.1372535723
  N        10.3425462883        9.7254371880       15.6913344179
  C        10.8467134891        7.6456334099       14.4685440358
  H        11.1001608727        5.5415703631       13.8566469473
  C         4.3303898552        0.7429608323       35.9538210394
  N         4.3928024324       -0.5549946304       36.0219811412
  O         4.6586557277       -2.3285147682       34.6222049638
  H         3.6871755131        0.9052178469       16.8363408737
  H         2.6243173495        1.9959790005       17.5676976092
  C         3.0399134551        0.1209335670       18.6821641245
  H        15.5884185010        1.4637025475       21.7118464720
  H        15.4304031160        2.7720460493       20.6962116097
  C        16.4841787442        3.4694476266       22.3552576231
  C        11.1407411543        8.2994685791       13.2652958548
  S         4.2076050784        1.6692285239       37.4401485736
  C         4.3917262113       -1.2880126318       37.2823706242
  H         3.7968576942       -0.5333760280       19.0413454059
  H         2.6503946755        0.4962405630       19.6302118792
  C         1.8870055922       -0.6558466820       18.0596012259
  H        16.0524515123        3.8667453920       23.2394337242
  H        16.7165132414        4.3766369485       21.8207111689
  C        17.8311909159        2.8113921802       22.5873062169
  H        10.8961744044        9.3795365818       13.3453213814
  C        11.7933636663        7.8814595182       12.1076590582
  H         3.7279898995       -0.8109632649       38.0031405389
  H         3.9003458018       -2.2697593113       37.0882767821
  C         5.8115828876       -1.4392212498       37.8061053486
  H         1.3130368017       -0.0263320937       17.3994062822
  H         1.1548187065       -0.8664610533       18.8198714237
  C         2.3848480974       -1.9449791569       17.3969195266
  H        17.7873313205        1.8999285178       21.9642869719
  H        18.5396817340        3.5210237845       22.1652386542
  C        18.1036602411        2.5305943898       24.0211625925
  S        12.4777528915        6.3708712397       11.7357497274
  C        11.8477299232        8.9327844590       11.0668240509
  H         6.0120703879       -0.7209126214       38.6416052248
  H         5.9296404878       -2.4308771031       38.1675026802
  H         6.5575716150       -1.1763936660       37.0395404697
  H         2.8689428061       -2.3713923598       18.2551031731
  H         3.0392024708       -1.7372049258       16.5613903142
  H         1.5576659691       -2.5341945421       17.0580283645
  H        18.8138131728        1.7041151675       24.0904991490
  H        17.2479363094        2.2026664961       24.5763405150
  H        18.4294238909        3.3313113082       24.6897768045
  C        12.9272337614        7.1623498393       10.2270845760
  N        12.6010739327        8.5004452117       10.0729966647
  O        11.3803287498       10.0822816097       11.2292051300
  S        13.8771105810        6.4830377058        8.9040600415
  C        12.8112123974        9.3637333746        8.9265012365
  H        12.7946570697       10.3836194850        9.2311176595
  H        13.7422499593        9.1493522079        8.3444424908
  C        11.7187447382        9.2290370580        7.8748715641
  H        12.0305810697        8.5292968817        7.1737284058
  H        10.8329507270        8.8729617817        8.3836565123
  H        11.5413683286       10.2100707531        7.4518075593
  H         2.7105253063        3.7909094128       12.1203618735
  C         2.7861493097        2.6871533775       12.2222189594
  H         1.9288338328        2.2000997247       11.7307702515
  C         4.1177513870        2.1286397541       11.4300788155
  C         2.7728334773        2.3245540391       13.6768157992
  C         4.1434661416        2.5530954152        9.9887171630
  H         4.1008492833        1.0180927918       11.3536108434
  H         4.9850711226        2.4391932307       12.0380532035
  H         3.6516683892        2.7771614009       14.1177726385
  H         3.0426631981        1.2649834476       13.7739834543
  H         1.8574878163        2.4880018559       14.2494858796
  C         5.0170780856        1.5745727158        9.1467593450
  H         3.0930134149        2.5807203291        9.5878444357
  H         4.5615131893        3.5902623228       10.0305204388
  C         5.7808677490        2.3045074412        8.0382284052
  H         4.4973747492        0.7021761369        8.7040309586
  H         5.7840539729        1.1262425331        9.8035515384
  C         7.0204345283        3.1468414765        8.2992430331
  H         5.1724203037        2.9989354951        7.5374879652
  H         6.1518142980        1.5728827801        7.3235650881
  C         8.2271787234        2.3758518279        8.8762875266
  H         7.4106852447        3.6552417319        7.4583867707
  H         6.6212431243        3.9398534280        8.9781136654
  C         9.5693816152        3.1827339502        8.9257027287
  H         8.4487199909        1.5171446242        8.2265062972
  H         8.1045855358        1.9647357798        9.8937142686
  C         9.1940103175        4.4821914245        9.5623629112
  C         9.9364311586        3.9164280058        7.6852765661
  C        10.7172766666        2.4350726778        9.5685594324
  C         9.4774624491        5.5783525705        8.8542061374
  C         8.5674806344        4.7708008118       10.7912149370
  C         9.8925601778        5.2266281686        7.5750515267
  C        10.3374718613        3.3201842723        6.5209149420
  H        10.3307416462        1.9022088081       10.4599026578
  H        11.1182152417        1.6156181038        8.9497476794
  C        11.9513536307        3.3023859431        9.9525564539
  S         9.0908671252        7.0138946599        9.6542080262
  C         8.4121566061        6.1292188758       10.9655334989
  H         8.3107616578        3.9459338694       11.4407121257
  C        10.2643007419        5.8064679011        6.3996155104
  H        10.4528775280        2.2347083401        6.4041534614
  C        10.6696862981        3.9403438370        5.3511946948
  H        11.7920412818        4.2902431016       10.4187046242
  H        12.4834980654        3.5390947858        8.9462147678
  C        12.9130934172        2.4649306095       10.8934824128
  C         7.9081047164        6.7784025681       12.1919953428
  C        10.7108247009        5.2429947252        5.2289400824
  H        10.2232106418        6.9145636836        6.5076703342
  C        10.9823611875        3.5383423573        4.0749795059
  H        13.9619406096        2.7636910304       10.9796929709
  H        12.8634583540        1.4535776881       10.5185573408
  C        12.2951771191        2.4140681566       12.3653556282
  C         7.9369697341        8.1544316112       12.4943759947
  C         7.4473208670        5.8473402149       13.1991529353
  C        11.1221233179        5.9373900583        3.9479099735
  C        11.2519037647        4.6102114683        3.2336467088
  S        11.2146536694        2.0042507444        3.3522877133
  H        11.6050592610        3.2652382318       12.3601722750
  H        11.6778098768        1.5331267371       12.4353439083
  C        13.3746418849        2.4639227210       13.4653447703
  N         8.1381637491        9.2553729084       11.6434855888
  C         7.6833530293        8.6324270486       13.7692229708
  C         7.1731808631        6.2995533399       14.4462679541
  H         7.2972224216        4.7735385241       13.1028031284
  C        12.4243483585        6.7813254164        4.2000202512
  C         9.9904976735        6.8369165549        3.3066308535
  C        11.6151938211        4.1486806177        1.9233094927
  C        11.5868867570        2.7774835637        1.8322532244
  H        14.2003243287        3.1795524436       13.2992269933
  H        14.0147822081        1.5652512049       13.3178174304
  C        12.7095624872        2.4179940949       14.8474207013
  S         8.1375101178       10.6530226503       12.5029245346
  N         7.6063260901       10.0396744890       13.8925414523
  C         7.2689273681        7.7428146623       14.7705307164
  H         7.0264691281        5.5820052548       15.2570847355
  H        12.1514029445        7.5665994248        4.9158081980
  H        12.6849081030        7.2328290537        3.2494981617
  C        13.6171640306        6.0081635102        4.6246858545
  H         9.8791041872        7.7804159629        3.9206028358
  H        10.3767763173        7.1019149429        2.3053240064
  C         8.6101662777        6.1343117174        3.1216965680
  H        11.9401893691        4.7963318015        1.1190738269
  C        11.8806450907        1.9442118610        0.5656358530
  H        11.9395211804        3.1786662528       14.9527875740
  H        12.0570347958        1.5729939522       14.8886364169
  C        13.7126717891        2.5272205163       15.9613430230
  C         6.9320163359        8.3154380091       16.0348102577
  H        13.3531513521        5.5800707727        5.5763916831
  H        13.8827095956        5.0742051284        4.0281418925
  C        14.8212858446        6.8143345891        4.9630415573
  H         8.3160617903        5.6264824382        4.0347632562
  H         8.8530980791        5.3370748751        2.4160542028
  C         7.5124782629        7.0992745271        2.6197614177
  C        12.0001271869        0.5180445379        0.4408187896
  C        11.8666797900        2.6648569157       -0.7222708373
  H        14.5232850867        3.3144176369       15.8397355640
  H        14.1095865643        1.5271601860       16.1222488936
  C        13.2815043627        3.1115298079       17.3636783868
  H         6.8784614261        9.4246925575       16.0664985292
  C         6.6745096175        7.7865735574       17.2656895494
  H        14.6903825132        7.0947515260        6.0422174776
  H        14.7886660981        7.7519144620        4.3753156142
  C        16.1523516329        6.0887139616        4.8574343803
  H         7.4426236173        7.8699916819        3.3867852030
  H         7.8891344388        7.5584187764        1.7075901306
  C         6.1377067738        6.4089054357        2.5292690441
  N        11.8877414190       -0.3207464201        1.5158383515
  C        12.0796251063       -0.1392820296       -0.7642735925
  C        12.1310121193        1.9219428736       -1.9065854482
  H        11.8663296054        3.7575266366       -0.7728025797
  H        12.6579981819        2.3869634012       17.8928518893
  H        12.7331327564        4.0811765729       17.2245994222
  H        14.1355334250        3.2565354277       18.0176554429
  S         6.5722432229        6.1060721000       17.6877767296
  C         6.3784015695        8.7856590295       18.3379021685
  H        16.2733995161        5.6322900626        3.8894572931
  H        16.9789925761        6.8602341656        4.8927131017
  C        16.3453957992        5.1712207379        6.0276335940
  H         5.9265146252        5.6599462172        3.2923204951
  H         6.2477392766        5.7752083234        1.5617188572
  C         5.0309420535        7.5071231544        2.3261002655
  S        11.8873986268       -1.8496776109        0.9808924043
  N        12.1467759309       -1.4773348671       -0.5568984579
  C        12.2811743157        0.4688204834       -2.0017782494
  H        12.2212352530        2.5297949324       -2.7781928651
  C         6.0980077059        6.7963872681       19.2781816748
  N         6.1109896559        8.1485715333       19.4672283367
  O         6.4689690713       10.0047322423       18.2962902382
  H        16.1715378086        5.6022082900        6.9617784835
  H        15.7933241320        4.2669002721        6.0038418580
  C        17.8636169722        4.9066524848        6.2001650642
  H         4.0279892881        7.2488208178        2.5841534587
  H         5.1566839020        8.4055845246        2.9454381520
  C         4.9030960433        7.9986497293        0.9001801601
  C        12.5615486721       -0.3058533082       -3.1171192563
  S         5.5379552130        5.8443629021       20.6900692654
  C         6.0408134029        8.8389179085       20.7986058657
  H        18.1023030352        3.9689949409        6.6206349648
  H        18.3612470478        5.0271486227        5.2012424604
  C        18.5538739159        5.8545478922        7.1712688552
  H         4.7132814726        7.0913998810        0.2179881159
  H         5.9022195140        8.4038527765        0.5898093759
  C         3.7877412845        9.0634897147        0.7478888399
  H        12.2743426175       -1.3624248226       -3.1011372847
  C        13.0674350432        0.1124684221       -4.3297065004
  H         5.2502476157        8.3128579895       21.4141815629
  H         5.5621768535        9.8368452043       20.5637769992
  C         7.3291708865        9.1872731948       21.5591377434
  H        18.3232722554        5.4177761141        8.1160911151
  H        18.1323324212        6.8723321156        7.1639769674
  C        20.0175200748        5.8233293370        6.8992930911
  H         3.4353765402        8.9582277857       -0.2702016221
  H         2.8892201462        8.9869184167        1.3591602776
  C         4.5317238182       10.4283080461        0.8440774554
  S        13.4595808874        1.6721744246       -4.7850100648
  C        13.3109115199       -0.8764224145       -5.3638587441
  H         7.1490411817        9.2462404585       22.6129725720
  H         7.7556817892       10.1331178807       21.2828024485
  H         8.0198439530        8.3031116307       21.4590495488
  H        20.1485085946        6.4398351938        6.0462623515
  H        20.7518411969        6.2242874685        7.6133416982
  H        20.4078876150        4.8817565832        6.5707664115
  H         4.7700453933       10.7162597289       -0.1099845601
  H         3.7051143552       11.1526059640        1.1227445124
  H         5.3354800306       10.4773292496        1.5840217491
  C        13.8025515783        1.0615371370       -6.4045707491
  N        13.7637503912       -0.2613591463       -6.4424339562
  O        12.8846501574       -2.0104263975       -5.2570863058
  S        14.8578293407        1.8878299064       -7.6381815113
  C        14.1586277390       -1.0180344829       -7.6686983266
  H        14.3962700999       -2.0349662639       -7.2239476086
  H        14.9929862120       -0.6406039374       -8.2907698159
  C        12.8750955077       -1.1206992538       -8.5623822997
  H        12.0710662449       -0.5911764589       -8.1139227526
  H        12.4927049727       -2.1752049340       -8.7227520097
  H        13.1442837295       -0.6825499157       -9.5629847735
