352
 i =    61400, time =    30700.000, E =        97.9108863208
  H        12.2792076491        5.6302597812       32.3240294279
  C        11.1640057762        5.5511859959       32.1350888294
  H        11.0061908220        4.5698452168       31.7458359546
  C        10.7542569297        6.4610238108       31.0470908267
  C        10.6078963659        5.5790603360       33.4961624954
  C        11.0698197903        5.9924178302       29.6636112888
  H         9.6992310362        6.7625710419       31.1860875230
  H        11.3188400239        7.4286100109       31.0373861921
  H        10.6423628673        4.6094159001       33.9024499955
  H        11.1381597492        6.2973670769       34.1320528800
  H         9.5097637512        5.7788152907       33.3938831339
  C         9.8660114894        6.0469150781       28.6843348565
  H        11.4203736548        4.9892976993       29.6393701936
  H        11.8840718634        6.5968209003       29.2075484808
  C        10.2843488402        5.6342560401       27.3149418040
  H         9.2165916521        5.2698689599       29.0487337736
  H         9.3655564436        7.0013512358       28.6941735649
  C         9.4258682517        4.9918820798       26.3065042445
  H        11.1923495577        5.0001862950       27.4454005158
  H        10.7175759784        6.4117200839       26.6882128406
  C         8.1676575511        5.8417585487       25.8840111194
  H         9.9873158469        4.5997812935       25.3807804954
  H         9.1157612580        4.0895017021       26.7820632182
  C         7.0831745443        4.9893608709       25.2501894979
  H         7.8392139499        6.4179245813       26.7898237262
  H         8.5403037958        6.5724994629       25.1405152174
  C         6.7642096242        3.6565435583       25.9709609986
  C         7.4893023504        4.2428415054       23.9790157513
  C         5.7484075891        5.8354268963       25.0725177956
  C         6.9276309163        2.5607043939       25.1394057480
  C         6.3204847355        3.2610905048       27.2363347335
  C         7.4261161430        2.8984168219       23.8662596381
  C         8.1492228314        4.8001972231       22.8857928407
  H         5.9159250335        6.6961274644       24.4420639492
  H         5.5542566960        6.2911935985       26.0448469992
  C         4.4674737139        5.0905130322       24.5828290237
  S         6.5184707147        1.0344037672       25.8742790995
  C         6.2511597919        1.8939323091       27.3649525603
  H         6.1181982859        4.0437585462       27.9816370264
  C         7.8191763114        2.2192365227       22.7079243743
  H         8.3295589417        5.9084784430       22.8305870869
  C         8.4757215673        4.1712135698       21.7260539967
  H         4.6910370979        5.0333531381       23.5199026817
  H         4.3969959887        4.0711643875       25.0124989686
  C         3.1368563418        5.7611397216       24.6332745927
  C         5.7603191236        1.2679407324       28.6612233159
  C         8.2033308466        2.8735162806       21.5545088072
  H         7.7771866385        1.1076461095       22.7582975833
  C         9.0013251668        4.5773920338       20.5655618127
  H         2.4288067289        5.2580521817       24.0068962955
  H         3.1248620228        6.6661817774       24.0441581911
  C         2.4622801867        5.9287643614       26.0068102434
  C         5.8152748155       -0.0684539522       28.9653515306
  C         5.2374761954        2.1896240106       29.7328853153
  C         8.6504904342        2.2130380780       20.2833074361
  C         9.0994722072        3.5328343022       19.6785190644
  S         9.3579194200        6.1668710192       19.8992278124
  H         1.7125935530        6.6682259469       25.7746202185
  H         3.1839089770        6.3298516923       26.8258721160
  C         2.0107017381        4.6150788988       26.6016886556
  N         6.2047799421       -1.0700632397       28.0581581466
  C         5.4771836999       -0.6178549926       30.1940444240
  C         4.9729114933        1.6690050045       30.9687842334
  H         5.1230041058        3.2522651124       29.5319287948
  C         7.5187137136        1.5221941844       19.4160948314
  C         9.9021249860        1.3127034486       20.5582470902
  C         9.5191280897        3.9890795615       18.4146225919
  C         9.6306373054        5.3761491186       18.3407030218
  H         1.2617946688        4.1478101505       25.9770284301
  H         2.8184693269        3.9481502898       26.8451390248
  C         1.2805604169        4.6869601381       27.9642622400
  S         6.1088305188       -2.5113773931       28.7430842045
  N         5.5766151511       -2.0115042429       30.1973251559
  C         5.0599398158        0.1843318045       31.2416349821
  H         4.6302076695        2.3556663394       31.7518635349
  H         7.0291226054        0.7330646976       19.9617622574
  H         8.1197802501        1.0065949629       18.6259178470
  C         6.4039768190        2.5337145357       18.9489188943
  H        10.1423616613        0.8313458900       19.6486013407
  H         9.5415780762        0.6021005204       21.3099116699
  C        11.1015276526        1.9690548492       21.1769635002
  H         9.7897011933        3.2607847023       17.5628244459
  C         9.9860844718        6.0757236421       17.0599507554
  H         0.6327478534        3.7891160373       28.0345862982
  H         0.7105090576        5.5231590598       27.9363034427
  C         2.2189921107        4.8486303121       29.0665570623
  C         4.9079991725       -0.3766009224       32.5193491745
  H         6.7889046415        3.2844766508       18.2346031954
  H         6.0180288381        3.1878334473       19.7117463918
  C         5.4043855234        1.9712270908       18.0083567949
  H        10.8626367293        2.6057760390       21.9772931536
  H        11.5343495866        2.6784432069       20.4310972828
  C        12.2466999753        1.0709886442       21.5642324597
  C        10.0760014668        7.4987742074       16.9342606547
  C        10.2786775434        5.2685436243       15.8148637147
  H         2.7263520699        3.8952076506       29.0892318278
  H         2.9881625427        5.6081754993       28.9416061275
  C         1.3886594026        5.1927059064       30.3093738558
  H         5.0631386428       -1.4917566974       32.5643820374
  C         4.5828679612        0.1025536994       33.7398864428
  H         5.6046152470        0.8821754966       17.7995469950
  H         5.6004753537        2.3840526532       17.0780048069
  C         3.9552729769        2.2707800709       18.3269781223
  H        11.7942220791        0.4482087124       22.3119674565
  H        12.4994255158        0.5276572614       20.7006690856
  C        13.3781778804        1.9578475377       22.1149423743
  N         9.8436536169        8.4254441527       17.9208954101
  C        10.3277367195        8.1525864321       15.6876285828
  C        10.5600033371        5.9065047496       14.6099696173
  H        10.2826794147        4.2329798288       15.8887357276
  H         0.5363821075        4.4666910901       30.3060272930
  H         1.8843650009        4.9745295535       31.2659292206
  H         0.9663173508        6.1851178356       30.2390996863
  S         4.0785933306        1.6762791678       34.2211434418
  C         4.7257894583       -0.8669831878       34.9004876373
  H         4.0019061629        2.6368460734       19.3744066539
  H         3.3064435133        2.8261166536       17.6592039690
  C         3.2196595618        0.9336786479       18.5636940617
  H        12.9167682421        2.8622850836       22.5717585958
  H        13.9011935405        2.2934424847       21.2171168728
  C        14.5064326094        1.4440300518       22.9645011170
  S         9.9955124473        9.9708591431       17.2972193691
  N        10.2060237087        9.5530585485       15.7144359342
  C        10.5693298121        7.3855710188       14.4815446048
  H        10.7526199931        5.2270777209       13.7750088349
  C         4.0215102620        1.0442976292       35.8983469807
  N         4.2149809378       -0.3297759166       35.9881444015
  O         4.9661303525       -2.1026874145       34.7960964854
  H         2.3320315492        1.2441042402       19.0649541231
  H         3.8079651933        0.3514545458       19.1952353706
  C         2.9220779891        0.1610328578       17.2915752891
  H        14.0747395966        1.0908470861       23.8910320160
  H        15.0122070525        0.6742306895       22.3372423714
  C        15.4811185050        2.6590651550       23.2172068863
  C        10.8634601956        8.1211570427       13.3029924455
  S         3.4620157228        1.9533622172       37.3150802585
  C         4.1158076731       -1.2160121865       37.2074272791
  H         2.3864587005        0.8340920166       16.7172001183
  H         3.8520382048       -0.1309179017       16.7816566276
  C         2.0844069684       -1.1437478442       17.5069606888
  H        15.6600706722        2.5566870781       24.2273952403
  H        14.8543819371        3.5641482878       23.0613028257
  C        16.7516182013        2.6849762805       22.3747397029
  H        10.5276760397        9.1644628916       13.3506853803
  C        11.4697676148        7.8152858899       12.1124301994
  H         3.2410373952       -0.7787818922       37.7145541036
  H         3.8577454331       -2.1965228747       36.8521756316
  C         5.4781318749       -1.2018481979       38.0176586535
  H         2.7453913384       -1.9756025228       17.2832674113
  H         1.3166420273       -1.0477829096       16.7647179323
  C         1.4700074124       -1.3719232461       18.8471208295
  H        16.5395675742        2.4777738088       21.2935305987
  H        17.2337311639        3.6771469556       22.3304632365
  C        17.7884986763        1.6701688938       22.8425138918
  S        12.0983963416        6.2781636047       11.5881905297
  C        11.4754432797        8.8502811939       11.0962378958
  H         5.9296520691       -0.2621794097       37.9097384956
  H         5.2943136178       -1.2410658091       39.0943623175
  H         6.1833938441       -2.0026705175       37.8374518381
  H         0.9274978925       -2.3220429025       18.9207307527
  H         0.7195559812       -0.5902203177       19.0196727165
  H         2.2316340326       -1.3681755483       19.6403153209
  H        17.4828143695        0.6945011509       22.4863647865
  H        17.8558233284        1.5275318771       23.9686533654
  H        18.7596541925        2.0064300575       22.5255590422
  C        12.5525393786        7.1156841428       10.0939723150
  N        12.1080001499        8.3927634051       10.0335834100
  O        10.8572600237        9.8895575157       11.2098036768
  S        13.1033198889        6.3728541804        8.6627484363
  C        11.9499106756        9.2562834506        8.7642388037
  H        12.0136549202       10.3790685114        8.9644355436
  H        12.8424779090        8.9515889176        8.1370485008
  C        10.6463215933        8.9412780958        8.0336601380
  H        10.7645063511        9.3519092130        7.0800804776
  H        10.6374705973        7.8961234446        7.8548829561
  H         9.7428775577        9.2909783613        8.5817015367
  H         4.5073077599        1.9069209629       12.6363208207
  C         3.8302391721        2.7433445293       12.7244893630
  H         4.4892910567        3.5959291494       12.5985974361
  C         2.9081519739        2.7937828440       11.5555297741
  C         3.1150305632        2.6670234040       14.0636201444
  C         3.6688810927        2.9290720820       10.2010884529
  H         2.2643110502        3.6793659694       11.7940967930
  H         2.2342019856        1.9337883029       11.6065607506
  H         2.1305196006        2.2206887114       13.8875348141
  H         3.0585913368        3.6259837436       14.4160390619
  H         3.6914913800        2.0987961364       14.7666005630
  C         4.4427398107        1.7179953646        9.7135499559
  H         2.9649578039        3.3850414202        9.4469885115
  H         4.3605414032        3.7831960806       10.2857833765
  C         5.1612698602        1.8172156068        8.2735362243
  H         3.7420168584        0.8687540697        9.5805812871
  H         5.2252017865        1.3659925756       10.3800673044
  C         6.4587482037        2.5951908430        8.3905617024
  H         4.5297413708        2.3102508810        7.5187079631
  H         5.2785413251        0.8763006364        7.7659232947
  C         7.7285814442        1.7393992096        8.5597062925
  H         6.5864112692        3.1300302532        7.4279041576
  H         6.4045045775        3.2933661405        9.1139751925
  C         8.9992017026        2.6240448280        8.8372241769
  H         7.8582303490        1.0562877843        7.8123248959
  H         7.5107898492        1.1634422318        9.3669948540
  C         8.6783133626        3.9108354476        9.5600105159
  C         9.5756354735        3.2493052172        7.6128773546
  C        10.1524634404        1.8574575802        9.4053296770
  C         8.9653666147        5.0255342256        8.7975256234
  C         8.2567029625        4.2989564990       10.8332145172
  C         9.5088043342        4.6127819649        7.5555440454
  C         9.9689746804        2.6301311801        6.3867883044
  H         9.7295445263        1.6083424593       10.3970536055
  H        10.4014578363        0.8946139384        9.0263065103
  C        11.4096964280        2.7630331432        9.7636204860
  S         8.6691928449        6.5516693491        9.5835097704
  C         8.1314125168        5.6339124628       10.9853359290
  H         8.1328506480        3.5786330552       11.5448206103
  C         9.8463867593        5.2826621587        6.4254435138
  H         9.9448100146        1.5229873949        6.3358793682
  C        10.4268624210        3.3466971452        5.3029408065
  H        11.1547887194        3.7414169126       10.2134872017
  H        11.9659076699        3.0006720815        8.8724951758
  C        12.3292136264        2.0835712465       10.8381787970
  C         7.6801198014        6.2959044210       12.3142513838
  C        10.3062102850        4.7070543288        5.2282935877
  H         9.7935520146        6.3220988041        6.4115888120
  C        10.7290429367        3.0495886207        4.0124375013
  H        13.2246846516        2.6898221537       10.8627837562
  H        12.7422465757        1.2108049627       10.4177233812
  C        11.8171090929        1.8932953400       12.2619522116
  C         7.6453568666        7.6631423020       12.5618517006
  C         7.2770993499        5.3951509484       13.4535149564
  C        10.7770934617        5.3944837668        3.9716593490
  C        11.0558817690        4.1197006196        3.2478935685
  S        10.8158308440        1.5382461150        3.2649800668
  H        11.2056341110        2.8103716811       12.5767965766
  H        11.2272898157        1.0236170131       12.2575386672
  C        12.9225725798        1.6462193433       13.3164950659
  N         7.9489398885        8.6530322908       11.6506111824
  C         7.4066666994        8.2156557868       13.8190211433
  C         7.0837008234        5.9481555084       14.7426367190
  H         7.1416774672        4.3436545664       13.2771901603
  C        12.0141451680        6.2630809434        4.2468818178
  C         9.6021797267        6.1785294080        3.2805182910
  C        11.5151631455        3.7118228229        1.9601214431
  C        11.3768570725        2.3841413951        1.7997769025
  H        13.7987112385        2.3459980958       13.1214860365
  H        13.4463569207        0.6881157653       13.1319052202
  C        12.3597221028        1.8099890616       14.7408795807
  S         7.9203692116       10.1236892839       12.3370348499
  N         7.4797647101        9.6400760222       13.8036425154
  C         7.1936795066        7.4066624700       14.9906037843
  H         6.7900636552        5.2874305755       15.5525260579
  H        11.7614258646        7.0861614893        4.9774190277
  H        12.4968176807        6.6160414368        3.3154230091
  C        13.0845948818        5.4610379068        5.0953414455
  H         9.3894406958        7.1158535033        3.7647687614
  H         9.9104815528        6.5379960828        2.3064746714
  C         8.3048470029        5.4351484578        3.1191053722
  H        11.8414797699        4.4804449925        1.2539436654
  C        11.6603024696        1.5912359806        0.5603722986
  H        11.9431933151        2.8118670091       14.7659580150
  H        11.5217069326        1.0575852398       14.7971235413
  C        13.2040327734        1.3724212886       15.9807363168
  C         6.9073318979        8.1431207898       16.1965383096
  H        12.6837259947        5.3761915655        6.0512482949
  H        13.2270731949        4.4728052930        4.5986935098
  C        14.4034018107        6.1513285271        5.0722614847
  H         7.9649118933        4.9872406350        4.0675940035
  H         8.3878442694        4.5988884647        2.4364239245
  C         7.2807075374        6.4762892832        2.7060847833
  C        11.8349949546        0.1798163322        0.4698448155
  C        11.8464789826        2.3658448356       -0.6790509367
  H        14.2089313345        1.6181684408       15.7755259344
  H        13.0639308123        0.2900226885       15.9441845273
  C        12.5679950786        1.7458023719       17.3641816537
  H         7.1851863718        9.2067246577       16.1091698005
  C         6.5942900209        7.7339222015       17.4708036280
  H        14.3867211669        7.1477954577        5.5606877133
  H        14.6714034698        6.3404279464        4.0212648923
  C        15.4326926775        5.2570363285        5.7328230671
  H         7.2036967236        7.2812900583        3.4586700926
  H         7.5129572962        6.9053361609        1.7098151720
  C         5.9051735446        5.7803180185        2.3593547641
  N        11.6194635964       -0.7627906141        1.5243741462
  C        12.1297790816       -0.4039970135       -0.7420936993
  C        12.2003838978        1.7180612105       -1.8824786185
  H        11.4799865333        3.3997643860       -0.7334172886
  H        12.1984670926        2.7899777106       17.4140630120
  H        13.2165361809        1.7253662058       18.2030629781
  H        11.7234192732        1.1028323374       17.4815062374
  S         6.2310052911        6.1484764850       17.9338586307
  C         6.3839797942        8.8001445479       18.4604213119
  H        15.0713161644        5.0722408160        6.7476457865
  H        15.3341354532        4.2278106881        5.3461170498
  C        16.8746516156        5.8043633568        5.6090611981
  H         5.3524498227        5.4396677802        3.2387916921
  H         6.1467931816        4.9139297319        1.7064699809
  C         4.9805858947        6.7367162365        1.6519163044
  S        11.6794606942       -2.2313566725        0.8419010855
  N        12.0893542880       -1.7805590289       -0.6615669236
  C        12.4544316929        0.2409296880       -1.9599246053
  H        12.1219018920        2.2920956888       -2.7560105394
  C         5.9266121433        6.8340825694       19.5189945947
  N         5.9478644511        8.2120841674       19.5714302312
  O         6.4417669664       10.0136369265       18.1797756268
  H        17.3653661357        5.1213821409        4.9682411381
  H        16.8365132062        6.8353379712        5.1847249769
  C        17.6172112603        5.7380482530        6.9948391322
  H         5.4222271113        7.0944348205        0.6996860349
  H         4.0314731294        6.1481752117        1.5259780839
  C         4.8313399527        8.0730161428        2.4014552930
  C        12.6131888482       -0.4888380857       -3.1715780268
  S         5.5702487723        6.0327414779       20.9765881829
  C         5.7512460287        9.0093100541       20.8328103471
  H        17.1154182174        6.1895799879        7.7807322045
  H        17.7170038848        4.6751878013        7.2560122587
  C        19.0833489233        6.2345669823        6.7682038516
  H         5.7166225900        8.6537252387        2.2880587928
  H         4.6766838419        7.7706851403        3.4227479480
  C         3.6226856648        8.9329979532        2.0701040266
  H        12.4344522666       -1.5943560225       -3.0630869227
  C        12.9505326690       -0.1648899893       -4.4555919424
  H         4.9876414214        8.5455655436       21.4927587506
  H         5.4946237621        9.9560356680       20.4829666904
  C         7.0861417802        9.0086425861       21.5209342366
  H        19.5826316959        6.2870670502        7.7999163316
  H        19.2979862528        7.1437584549        6.2661711676
  C        19.8605783370        5.2487692061        5.8698018740
  H         2.7166539032        8.3172296853        2.2096696169
  H         3.5872232630        9.7644200024        2.7577714189
  C         3.5291211385        9.4086667153        0.6132419107
  S        13.4245398246        1.4379902261       -5.0079873800
  C        13.1097165908       -1.2221331212       -5.4136375495
  H         7.7504883803        8.2307970920       21.3566275447
  H         6.8333287399        9.1052475876       22.6396360082
  H         7.6275601013        9.8562449111       21.1662190980
  H        20.5515690461        4.5916090220        6.3595821297
  H        19.3056813354        4.6753751111        5.2440849011
  H        20.5246625832        5.8501723340        5.2618671166
  H         2.8278121744       10.2267496299        0.3483674801
  H         4.5021238631        9.7295913234        0.3561543495
  H         3.3239748946        8.5788824558       -0.0457533815
  C        13.7885397735        0.5989563488       -6.5578398064
  N        13.6473706209       -0.7380375768       -6.5378680652
  O        12.9346281871       -2.4508424523       -5.1700843081
  S        14.6971266148        1.2621885264       -7.9343884087
  C        13.7182643649       -1.6231588401       -7.7314990055
  H        13.8838697027       -2.6809894678       -7.5580221454
  H        14.6421444176       -1.4048948691       -8.2257207903
  C        12.5116933643       -1.3796372868       -8.6414750858
  H        11.6488442855       -1.6435738063       -8.0407610549
  H        12.4287384916       -2.0117329905       -9.5185397664
  H        12.3832735580       -0.3561779884       -8.9441084272
