352
 i =   108100, time =    54050.000, E =        98.9493951955
  H        10.1843370623        4.8199503525       31.8361426389
  C        10.5321439381        5.7891738294       32.2131641679
  H         9.6713749577        6.4006908045       32.0943236254
  C        11.6438863515        6.2131214939       31.3686912849
  C        10.9485903636        5.4354134249       33.6597348099
  C        11.3366802511        6.3707948286       29.8330412960
  H        11.9067037229        7.1823029727       31.7379454653
  H        12.5897502039        5.6811397463       31.5623476052
  H        10.1826044122        5.6372777268       34.4167913628
  H        11.1077042444        4.3765358158       33.7633806713
  H        11.9137993627        5.8616343762       33.9643440347
  C        10.8151320874        5.2292490465       28.9594542862
  H        12.2729661874        6.7066265728       29.4283476014
  H        10.5738756283        7.1685888696       29.7295762819
  C        11.0172012709        5.4285282210       27.4214168377
  H        11.4573877760        4.3283720158       29.2918575525
  H         9.8387563165        4.9977507556       29.0884482020
  C         9.8208180856        4.8761468943       26.5807686946
  H        11.9129392061        5.0636386065       27.0329755832
  H        11.0046434183        6.5187446185       27.1701080020
  C         8.6745389999        5.9357617909       26.4127003697
  H        10.2011443973        4.6769097216       25.5181413738
  H         9.4245900036        3.9917304938       27.0184956765
  C         7.3642470659        5.3354913389       25.8307348231
  H         8.4672076922        6.4513617612       27.3393162264
  H         9.1120441312        6.8045709893       25.8306698932
  C         6.9767969387        4.0037616694       26.4876851409
  C         7.7375615390        4.6579243795       24.5799658291
  C         6.1451648421        6.2729345028       25.7662879241
  C         7.0005910789        2.9062890724       25.5877879454
  C         6.3788099960        3.6076447810       27.6936781378
  C         7.5374715729        3.3104896610       24.3931482477
  C         8.2631638751        5.2863178033       23.4571391165
  H         6.3208711190        7.1237115805       25.0783074250
  H         5.8268408873        6.6575712246       26.7227584329
  C         4.9820773580        5.5949798063       25.0727702626
  S         6.6556294467        1.4169949759       26.3043568268
  C         6.3176894421        2.2395976457       27.7606834545
  H         6.1126338604        4.3474816118       28.4553599007
  C         7.9174175338        2.7226028062       23.1966993577
  H         8.3607210102        6.3739526266       23.4319457362
  C         8.5610367722        4.7202557600       22.2150137661
  H         5.3371600590        5.2682130099       24.0282375485
  H         4.6046386641        4.6569541495       25.4925440775
  C         3.7852161078        6.4780434966       24.6610609544
  C         5.9170096331        1.4480102521       29.0007917639
  C         8.4131042310        3.3829554470       22.1001890017
  H         7.7932361978        1.6655246901       23.0587193811
  C         8.9534359380        5.1169226797       20.9764950760
  H         3.1965573964        6.1128100072       23.9391580763
  H         4.2364260511        7.3290551477       24.1671906944
  C         2.8713840787        6.7461578827       25.8592719756
  C         5.9704950351        0.0279816840       29.1110036527
  C         5.4217778279        2.2364601177       30.1041577219
  C         8.8525548757        2.6731767683       20.8158778994
  C         9.1512781300        4.0181183518       20.1095940175
  S         9.1866330406        6.5655130000       20.1910718219
  H         2.2173617976        7.5257306406       25.5169156199
  H         3.4879492865        7.2113741525       26.5783734641
  C         2.2232234163        5.5285996375       26.4624090259
  N         6.4452343407       -0.9572249609       28.2005098217
  C         5.7723836869       -0.5315028931       30.4070328400
  C         5.1632406138        1.6433792699       31.3372775368
  H         5.1884203202        3.3300245795       29.9258705511
  C         7.7855241769        2.0064804660       19.9215985246
  C        10.1620290235        1.7878221516       20.9197419949
  C         9.5461586296        4.4437338944       18.7426011392
  C         9.6951426392        5.8147445531       18.6834228115
  H         1.8329108813        4.8462462133       25.7480070092
  H         2.9569140138        5.0161532539       26.9994187272
  C         1.0899942332        5.8433973790       27.3601380286
  S         6.5338037180       -2.4411883192       28.9539853349
  N         6.0232999554       -1.8738556317       30.4239512082
  C         5.3575435190        0.1720125371       31.5667539831
  H         4.7625979264        2.2748130227       32.1481603224
  H         7.3666514295        1.2204619960       20.6166847771
  H         8.2575219876        1.5969057215       19.0818275243
  C         6.5977167610        2.8010847829       19.4738959579
  H        10.4477116045        1.4700342231       19.9410693150
  H        10.0033174546        0.9143080085       21.5622613317
  C        11.2505918319        2.6438363010       21.6147606076
  H         9.5700025298        3.6709961625       17.9496108698
  C         9.9853730898        6.5305515402       17.4161207307
  H         0.4412907230        4.9780559641       27.4872081386
  H         0.3401820175        6.4709382347       26.8534518839
  C         1.4348946302        6.5017353982       28.7094610108
  C         5.1675727944       -0.5798774283       32.8314651812
  H         7.0404968350        3.5847156748       18.8931606759
  H         6.1064755812        3.2517646813       20.2965164871
  C         5.6294312100        2.0576835536       18.6511372979
  H        10.8257866323        2.8681091538       22.5684433078
  H        11.4222189162        3.5673255605       21.0822245450
  C        12.5205785821        1.8095692117       21.8042663687
  C        10.0467541383        7.9323346354       17.2138321638
  C        10.2257958058        5.7096291346       16.1569435361
  H         2.4059889905        7.0329279917       28.5275437994
  H         0.6569852012        7.2187442789       28.8866311711
  C         1.4883767922        5.5482849319       29.8879235783
  H         5.1824959052       -1.6623415352       32.7121887796
  C         4.8359824233       -0.1630285477       34.0973643705
  H         5.5074833753        1.1544597098       19.2554383462
  H         6.0562716314        1.7899826461       17.7153438005
  C         4.2866993089        2.6955045095       18.4299004490
  H        12.1647201710        0.9253421810       22.3856968700
  H        12.8845525333        1.4501394718       20.8732857653
  C        13.5294665065        2.6035448810       22.6543702112
  N         9.7828898903        8.8255804944       18.2627777221
  C        10.2850703857        8.5453419805       16.0216650422
  C        10.5438968637        6.3315604873       14.9086364899
  H        10.1626010429        4.6835513131       16.1785937504
  H         1.4214513727        6.1972359795       30.7899292961
  H         0.6425194035        4.8080332832       29.8680869317
  H         2.4165208517        4.9944157363       30.0756224827
  S         4.6075512202        1.4704562603       34.6743623165
  C         4.6798831851       -1.1866555256       35.1875067036
  H         3.8626370810        3.0481171440       19.3998881628
  H         4.4385179520        3.6576643511       17.9061661497
  C         3.2213460596        1.8972878999       17.6769544290
  H        13.5447778506        2.0876548412       23.6427678794
  H        13.2547753404        3.6157079868       22.7780134247
  C        14.9405704397        2.5784398992       22.1681602710
  S         9.9121682780       10.3352055727       17.7082191258
  N        10.2636413881        9.9451502358       16.1694404241
  C        10.5657526169        7.8396954969       14.8241032918
  H        10.8742873887        5.7278855938       14.0547782247
  C         4.3880872196        0.7194780773       36.2433925351
  N         4.3088244032       -0.6143091389       36.2929502828
  O         4.6769226650       -2.4275364494       34.9752814843
  H         2.8026194913        2.3175150129       16.6793939194
  H         2.3387055576        1.8779402718       18.2631125157
  C         3.5440033101        0.3864454240       17.4941579719
  H        15.2523176328        1.5533161894       22.2187938501
  H        14.9307389270        2.8608767689       21.0775911552
  C        15.9451796088        3.5227027724       22.8447085842
  C        10.8807842992        8.6903435688       13.6588432517
  S         3.7318027249        1.5762883109       37.6406388337
  C         4.2364382312       -1.3868220861       37.5890274259
  H         4.4630603854        0.2631574552       16.9400432846
  H         3.7229276592       -0.1581937991       18.4097894816
  C         2.3440048958       -0.2843966242       16.7214155268
  H        15.9960605542        3.1958597136       23.8882157204
  H        15.5406393077        4.5178693306       22.6375199197
  C        17.3273251258        3.4682192529       22.2462828743
  H        10.7023178722        9.7053904434       13.8575661167
  C        11.3905279265        8.4158386614       12.3899716750
  H         3.8458074174       -0.7352186136       38.4180915253
  H         3.6503791335       -2.3043647780       37.5353406416
  C         5.6224944484       -1.8629359454       38.0782701030
  H         1.9684797765        0.2927116954       15.8586584598
  H         1.5047655841       -0.2008012448       17.4094885400
  C         2.4800323824       -1.8018198939       16.6540102872
  H        17.3134144193        3.2541122632       21.1799313840
  H        17.8289080687        4.4213074929       22.4086444324
  C        18.1349030594        2.2689552512       22.8060986036
  S        11.8152745203        6.8566659140       11.7398900009
  C        11.6525071431        9.5393013173       11.4603253510
  H         5.6737603960       -2.9039554086       38.3823208762
  H         6.4025137078       -1.7348981134       37.3331936605
  H         5.9273988327       -1.3030224051       38.9812611705
  H         1.9197899917       -2.1984577265       17.5222056102
  H         3.5223629580       -2.0958915407       16.7972346761
  H         2.1010781160       -2.1599608748       15.7076801225
  H        19.1044398748        2.1602018081       22.3460441884
  H        17.6573535154        1.2700704559       22.7420324228
  H        18.2135244197        2.3167350724       23.8744785849
  C        12.3640301812        7.7162853153       10.3256556143
  N        12.3041467412        9.0632214325       10.3695729441
  O        11.4732637282       10.7069220071       11.7469646509
  S        13.0533524319        6.8161095677        8.9478289154
  C        12.6916888251        9.9070163553        9.3292003930
  H        12.8185794579       10.9774768622        9.5733646757
  H        13.6031347847        9.5470515623        8.8182907438
  C        11.5920500222        9.9203870721        8.2697244414
  H        11.8450603788        9.0587356061        7.5952163255
  H        10.5950455160        9.8237093846        8.6727433806
  H        11.5317041228       10.8019057654        7.5520796702
  H         2.6026285170        3.0980674105       11.9892268819
  C         3.2927216637        2.2945912390       12.2251448753
  H         2.6774414840        1.4286247090       12.0587447616
  C         4.4905056526        2.2180779108       11.3028214315
  C         3.6769116295        2.4393257512       13.6741508900
  C         4.0189262282        1.8063563967        9.9108701760
  H         5.1722624958        1.5047677124       11.8099909419
  H         4.9787857299        3.1486809845       11.3717463986
  H         4.4389067242        3.2568421012       13.8052276552
  H         4.1166419818        1.4497326908       13.9648352564
  H         2.7328517375        2.5923945406       14.2216268884
  C         4.8887083718        0.8540542555        9.2074697590
  H         2.9538285118        1.5171315637        9.9813948674
  H         3.9506813343        2.6690607505        9.2379689493
  C         5.7529556454        1.4505285697        8.1157530783
  H         4.2592872043        0.0697227062        8.8225234482
  H         5.5185159646        0.3867692628        9.9368661834
  C         6.8833665914        2.3632909528        8.5274350071
  H         5.1629756119        2.0757571015        7.4419306732
  H         6.1721264063        0.6912692977        7.5547565408
  C         8.2310893484        1.8733376241        9.1946283407
  H         7.0190065330        2.9799115479        7.6514134411
  H         6.2790676472        3.1059802912        9.1632233007
  C         9.4671855234        2.8118774904        9.2168819797
  H         8.5741535679        0.9392213556        8.7279737777
  H         8.0036105513        1.7805858869       10.2226316616
  C         8.9481541641        4.1216752969        9.8275398718
  C         9.6798906862        3.4940650187        7.9087505247
  C        10.6669820184        2.2868089388       10.0827612248
  C         9.0581576582        5.1933032370        9.0641644183
  C         8.4506077765        4.5341635318       11.1253725189
  C         9.4691474709        4.8017516287        7.7864808603
  C        10.0711560233        2.8345761666        6.7763288281
  H        10.4050111124        2.0833540584       11.1136925782
  H        11.1395331975        1.3165839849        9.7727896219
  C        11.8924758031        3.2062765029       10.0990002222
  S         8.5050637596        6.6848991242        9.7586532341
  C         8.1478408169        5.8565817856       11.2273793728
  H         8.3196776691        3.7832037159       11.8821254666
  C         9.7626340406        5.3725428358        6.6093288407
  H        10.2089536995        1.8278469226        6.8363731439
  C        10.3679191565        3.4053064262        5.5686894769
  H        11.7124337675        4.2410586916       10.2924204695
  H        12.4054413595        3.2825635717        9.1483344951
  C        12.8136648911        2.6352709951       11.1720821465
  C         7.6461558471        6.5653974629       12.4575606984
  C        10.2608101672        4.7443631687        5.4764949359
  H         9.7417875905        6.4577898124        6.6124663231
  C        10.7385789568        3.0191222890        4.2764330728
  H        13.7647080148        3.0640683044       10.8695428295
  H        12.8730998140        1.5310517086       11.0795370307
  C        12.4837702478        3.0699825892       12.6194344954
  C         7.7030714053        7.9869322509       12.6961606952
  C         7.0302057145        5.7971103445       13.5197333558
  C        10.7716376715        5.4287807563        4.1703637999
  C        11.0069082442        4.1112042746        3.4622636803
  S        11.1248118598        1.4733748034        3.4442194742
  H        12.8425414664        4.0661187108       12.7126173722
  H        11.3644144680        3.1323702297       12.6210897965
  C        12.8993480449        1.9767461208       13.6982227852
  N         8.1128793048        8.9482112820       11.7640282843
  C         7.3036712273        8.5454582014       13.8915314225
  C         6.8548285270        6.2945875936       14.8130172462
  H         6.7541854046        4.7292499038       13.2944447182
  C        12.1773059197        6.1709742466        4.3478305178
  C         9.6180116631        6.2853109306        3.5916413868
  C        11.3413515798        3.6861836737        2.1434397262
  C        11.5628267496        2.3460677523        2.0489483517
  H        14.0189242276        1.7964232422       13.8235971865
  H        12.2730426194        1.0801737774       13.4479114320
  C        12.2884977520        2.3918369346       15.0588906243
  S         7.9512619705       10.4586517307       12.4243947668
  N         7.4099905313        9.9493102450       13.8989354263
  C         6.9598022593        7.7759758814       15.0682437889
  H         6.1835243984        5.7484695042       15.4938418664
  H        11.9653434212        6.9163653705        5.1230167879
  H        12.4605524374        6.7329644841        3.4359544160
  C        13.5089879609        5.3244074295        4.7331602141
  H         9.3833583921        7.0223862274        4.3355151676
  H         9.8968364115        6.9146872711        2.7572390576
  C         8.3860940547        5.5115098769        3.1505731221
  H        11.4068006252        4.4024050720        1.3694028206
  C        11.8859587682        1.5763919830        0.7664460493
  H        11.7857556570        3.3183433369       14.8160153296
  H        11.5081346818        1.6381544278       15.4280864770
  C        13.4030073104        2.5742280581       16.0761019508
  C         6.7096079404        8.4805216089       16.2537421641
  H        13.4682539876        4.7702880838        5.6996650132
  H        13.7936792934        4.6440722257        3.9520348575
  C        14.8205324351        6.2104543709        4.7643417107
  H         8.1064108071        4.7901780445        3.9083887369
  H         8.6675284480        4.8133723176        2.3768776317
  C         7.1590450847        6.4597699872        2.8796410251
  C        12.0290866995        0.1648733078        0.5757153526
  C        12.0662245249        2.3729586020       -0.4424491065
  H        14.0925819990        3.3779086572       15.8725833967
  H        13.9218417695        1.6632677981       16.2763830037
  C        12.7375055618        2.9845665230       17.4374011156
  H         6.9539635271        9.5416324625       16.1532590034
  C         6.3513497367        8.0982324366       17.5663872556
  H        14.8014541106        7.0292554199        5.4287160421
  H        14.9353905931        6.6510682506        3.8030819031
  C        16.0053101946        5.2889195174        5.1383725363
  H         6.8459200260        6.9224217670        3.7809117634
  H         7.4050094953        7.2998877991        2.2176044758
  C         5.8511247112        5.9218449846        2.3564404830
  N        11.7956442007       -0.7775992601        1.6201720113
  C        12.4089777399       -0.4989283666       -0.5634105857
  C        12.3722600497        1.7084670944       -1.6354677474
  H        11.7525457096        3.3809257128       -0.5040074848
  H        13.3007866590        3.0882825654       18.3274402532
  H        11.9805719435        2.2442683533       17.6759807443
  H        12.2173401475        3.9283402893       17.4614053893
  S         6.0964092254        6.5511535704       18.1094573241
  C         6.3081371196        9.2122070395       18.5902346603
  H        15.9010253381        4.2814814730        4.6852014226
  H        16.9338595069        5.7683049905        4.8870594858
  C        16.0792693638        4.9900080818        6.6742648054
  H         5.4385257548        5.1165041345        3.0096365573
  H         6.0654227335        5.4214952826        1.4052943847
  C         4.7704935550        6.9775502742        2.2964360855
  S        11.9802595260       -2.2820978377        1.0620292928
  N        12.4817239997       -1.8940500624       -0.4393611754
  C        12.5735594493        0.2078381852       -1.7471149820
  H        12.5058436561        2.2958763608       -2.5396177693
  C         6.1218335470        7.2376989869       19.7220930721
  N         6.2310020348        8.5693394389       19.7627795932
  O         6.3960273791       10.4558665292       18.4524978509
  H        15.6765776174        5.8153467421        7.1907782032
  H        15.4941564781        4.1518011391        6.9656595918
  C        17.4536885667        4.6638506762        7.2997162503
  H         3.8375865602        6.4321665923        2.5820315755
  H         4.9355778986        7.7849287851        2.9764818534
  C         4.8168496696        7.6769242965        0.9169433484
  C        12.8430952915       -0.4867588835       -2.8882944526
  S         5.5324716891        6.5273121739       21.2160682032
  C         6.3889945931        9.3729032387       21.0017427146
  H        17.1875386776        4.6567333352        8.3766642073
  H        17.8529253749        3.7510506353        6.8360995325
  C        18.4149740074        5.8120912016        7.1084911827
  H         4.5369809673        6.9671876612        0.0961475409
  H         5.7455804369        8.1762879147        0.5575504009
  C         3.6977842225        8.6250851114        0.8644050040
  H        12.5935618157       -1.5881120532       -2.7657829774
  C        13.3680522423       -0.0881785053       -4.0643041701
  H         5.5489734566        9.0708702029       21.6083025552
  H         6.2992406372       10.4222529347       20.8081856844
  C         7.6887249350        9.0186204208       21.6902359474
  H        18.8038367622        6.0957389426        8.0984862872
  H        17.8437876603        6.7414772041        6.8255699093
  C        19.6521295027        5.5207400620        6.1810178142
  H         3.2746816438        8.5099284602       -0.1859419847
  H         2.9868654033        8.3841984939        1.6095211081
  C         4.2779128182       10.0712339198        0.8084452512
  S        13.9517346483        1.4865300319       -4.5760503665
  C        13.4623239537       -1.1651181243       -5.1107839921
  H         7.6358811701        8.1451110997       22.3392173044
  H         7.9200660222        9.7675246217       22.4612565859
  H         8.5339610877        8.9233074158       21.0755931254
  H        19.3487575975        5.5976654512        5.1046861888
  H        20.4490995556        6.2121249729        6.5016958780
  H        20.0511841083        4.5157004558        6.3638000359
  H         5.0503698443       10.2628424988       -0.0170148840
  H         3.4987345862       10.7663455574        0.7511742800
  H         4.7702930061       10.1724366231        1.7504088282
  C        14.2320651974        0.7459305456       -6.1142615256
  N        14.0531572731       -0.6181843218       -6.1666082138
  O        12.9480476161       -2.2696564808       -5.0801681291
  S        14.8367530728        1.6443166455       -7.5979569088
  C        14.1104653035       -1.4295868943       -7.4296413087
  H        14.1419827251       -2.4933362941       -7.1779944981
  H        15.0707853880       -1.2704085795       -8.0829801413
  C        12.7958611388       -1.1731102677       -8.1493133700
  H        11.9765936988       -1.6751554264       -7.6252615317
  H        12.8490911534       -1.4199438998       -9.1888070887
  H        12.4747698768       -0.1762124682       -8.1262886604
