352
 i =    71400, time =    35700.000, E =        98.9552682036
  H        12.6587129119        6.6135082769       31.6564710830
  C        12.1769141088        5.7374926113       32.0274001083
  H        12.8018238042        4.8890602093       31.8486292601
  C        11.0321768985        5.5148045779       31.0749628867
  C        11.7883008477        5.7084959388       33.5132656136
  C        11.5768126733        5.5174314766       29.5772405682
  H        10.6724262594        4.5175908215       31.2084316704
  H        10.2652104590        6.2299616291       31.3949767392
  H        12.4601749437        6.3622948545       34.0976020813
  H        10.7637326679        6.0258570321       33.6723537012
  H        11.9745793123        4.7132685764       33.8495943675
  C        10.4562256620        5.6609999737       28.5587030090
  H        12.1120045355        4.5760718174       29.4400324994
  H        12.2594374791        6.3199778101       29.3314486751
  C        10.9492335574        5.7883991244       27.1243388052
  H         9.6854871226        4.8390277502       28.7753587008
  H        10.1577206988        6.7585154314       28.6905980457
  C         9.9202042220        5.2440836541       26.1653493439
  H        11.7352028239        5.1103824582       27.0668770921
  H        11.3587908474        6.7296379395       26.8386106564
  C         8.7121507583        6.2052315169       26.0364979549
  H        10.4491092476        5.2506194466       25.2796396207
  H         9.7389575882        4.1600228686       26.3447417764
  C         7.5113300181        5.5748671389       25.3105843044
  H         8.3958089427        6.8103908460       26.8450451994
  H         9.1175280754        7.0689986759       25.5164663605
  C         7.0459334481        4.1728694659       25.8993476869
  C         7.9038217447        4.8893817159       24.0021483353
  C         6.3235607156        6.5440136567       25.0731405687
  C         7.3319845556        3.1171975375       25.0903208434
  C         6.6206847276        3.8062922474       27.2294986702
  C         7.8269767633        3.5572167755       23.8432473430
  C         8.3123240885        5.5676935893       22.8618868762
  H         6.4943869901        7.4145080747       24.3917269385
  H         6.1024284028        7.0249726382       26.0138865880
  C         5.0527406879        5.8806265143       24.5103729213
  S         6.8907558087        1.6218730473       25.7771761608
  C         6.4332326019        2.4592936425       27.3020046869
  H         6.5609305425        4.5414393266       28.0001862511
  C         8.1038982595        3.0070829627       22.6312820446
  H         8.3934911518        6.6053487644       23.1041528453
  C         8.6084985605        5.0588826003       21.6306862902
  H         5.2219731952        5.6596723466       23.4652390194
  H         4.8453751725        4.8850348016       24.8705008227
  C         3.7480343642        6.6494139442       24.6645790801
  C         5.9906237430        1.7704395254       28.5487805384
  C         8.5324735584        3.7181727056       21.4816186352
  H         7.9601325142        1.9608326489       22.5685120835
  C         8.9803296777        5.5521352854       20.3925523628
  H         3.0060050599        6.2355633335       24.0719561452
  H         3.8084514956        7.6904459399       24.3486537263
  C         3.2952636603        6.7600304484       26.1801956143
  C         5.9380631633        0.3646431793       28.8233131092
  C         5.6406897551        2.6314251686       29.7317896812
  C         8.8332748587        3.0610389548       20.1801552997
  C         9.1949424124        4.4406474781       19.5399637354
  S         9.3473205289        7.0674117616       19.6369654021
  H         2.4120710552        7.4157665756       26.3432819223
  H         4.0371737974        7.2885894309       26.7483669238
  C         3.0389792260        5.3295400692       26.7184705201
  N         6.2399925241       -0.5864588130       27.7910462826
  C         5.7922904368       -0.1675919840       30.0779305387
  C         5.4020075663        2.0732935347       30.9999205524
  H         5.4775241967        3.6847452627       29.6456604108
  C         7.5664878077        2.2873563261       19.6016457341
  C        10.0253115791        2.0748658131       20.3167123612
  C         9.6707129592        4.7701862599       18.2755143581
  C         9.8353809457        6.1570228074       18.1624378803
  H         2.7980417747        4.6446949215       25.9042815603
  H         3.9799416656        4.9062032101       27.1047626217
  C         1.9402407970        5.4866020355       27.8068013289
  S         6.2211601815       -2.0303946083       28.5562407728
  N         5.7874319405       -1.5748483584       30.0473725238
  C         5.5327387236        0.5855380283       31.2199960305
  H         5.1453425121        2.7522747444       31.7193614899
  H         7.3676058963        1.5107791754       20.2913314826
  H         7.8221253295        1.8421399232       18.6324727867
  C         6.2959430007        3.1212211795       19.3757926487
  H        10.1276471683        1.3778392464       19.4428233258
  H         9.8548318993        1.3335948773       21.0824575518
  C        11.3847990370        2.8338472713       20.4554064988
  H         9.8838533591        4.0205234469       17.5024604984
  C        10.2323318480        6.8484345546       16.8769742952
  H         1.2622595593        4.5986263210       27.7590054555
  H         1.2641971441        6.3173178929       27.6346707025
  C         2.5574035256        5.6731058099       29.2036825307
  C         5.4486929923       -0.1596702410       32.4472696616
  H         6.4599526731        3.9152709075       18.6911739400
  H         5.9128019993        3.5857908130       20.2779427269
  C         5.2804401936        2.0831154594       18.6876886474
  H        11.3345228485        3.6157383301       21.1791501624
  H        11.7098945079        3.4706784517       19.5980590235
  C        12.5958316013        1.8993423449       20.8378821731
  C        10.2498552688        8.2534214566       16.6341670476
  C        10.4128124491        6.0509466257       15.6383917212
  H         3.4028667502        5.0102596398       29.2137428376
  H         2.9404770019        6.6685824141       29.2810656798
  C         1.5336789969        5.4613896140       30.3611990933
  H         5.8521256873       -1.1471800487       32.4986580933
  C         5.0959098678        0.2182136782       33.7101444084
  H         5.2820564207        1.2074613087       19.3457874603
  H         5.7295096302        1.7030322304       17.7871894730
  C         3.9810477256        2.5779475035       18.3322181833
  H        12.2462743672        1.1960570939       21.6043182607
  H        12.7935077892        1.1433458667       19.9745229502
  C        13.9690163832        2.5752409398       21.1905660752
  N         9.8389004009        9.1739208356       17.6161633842
  C        10.6478754853        8.8828950913       15.4687860458
  C        10.7400859045        6.6412671768       14.3923111920
  H        10.2222964323        5.0312945376       15.5849889365
  H         0.9842356253        6.3961460637       30.5616352564
  H         0.9824374191        4.5163737456       30.1663945692
  H         2.0519461650        5.2556417601       31.2462198955
  S         4.5425864700        1.7893252149       34.2287705740
  C         5.0892352273       -0.8751760501       34.6847023779
  H         3.7690911112        3.5152188981       18.8954442798
  H         3.9490094880        2.8975566226       17.3134210784
  C         2.8693780991        1.5381998051       18.7041134891
  H        14.0144355447        3.5592938942       20.7048854004
  H        14.7813743748        2.0330886726       20.7836378508
  C        14.2225207269        2.6437769579       22.6591879770
  S        10.1329151137       10.6978182228       17.1172700707
  N        10.6198081731       10.3068233355       15.5909148991
  C        10.9975120344        8.1522739178       14.2960467121
  H        10.9778792728        6.0339867574       13.5647757141
  C         4.5018918885        0.9506301681       35.8351774002
  N         4.6255295618       -0.3720628770       35.8700017118
  O         5.1836121104       -2.0736817980       34.4556328252
  H         1.9502536664        2.0568987264       18.7287698622
  H         3.0118348045        1.1115745622       19.7316272136
  C         2.8180825514        0.4994407087       17.7107710397
  H        13.3897452532        2.9282022760       23.2417179410
  H        14.5265290986        1.6843548397       23.0248357793
  C        15.3283574125        3.6013596962       22.9538925757
  C        11.4027772316        8.8736030608       13.1416428464
  S         4.2237596644        1.6874582919       37.4274808237
  C         4.6001905986       -1.1404231223       37.1190508892
  H         2.2504327999        0.7879107793       16.8236709994
  H         3.8655476019        0.2938565874       17.3763882096
  C         2.1736738848       -0.7028610659       18.3646747125
  H        15.2010350690        3.7373024225       24.0088029380
  H        15.1809273008        4.5128563409       22.4147687432
  C        16.7250594823        2.8948061967       22.5537378886
  H        11.0612715982        9.9010677919       13.1213306319
  C        11.8565973704        8.4896791912       11.9303743798
  H         3.8532403242       -0.7948654739       37.7868073247
  H         4.2820756630       -2.1835088443       36.9640501930
  C         5.9475742286       -1.1676168741       37.7994810289
  H         1.5077053957       -0.4134585613       19.1816842630
  H         3.0008367893       -1.4189700677       18.6468977679
  C         1.4566194422       -1.6996947339       17.4296771951
  H        16.5500406755        2.0444636005       21.8938590580
  H        17.4075891905        3.5902008475       21.9812886003
  C        17.3255384441        2.2753136829       23.8290081074
  S        12.3468937521        6.9518273458       11.4121783698
  C        11.9990147035        9.5331283850       10.9042217675
  H         6.8329044599       -1.3962919316       37.1796532021
  H         6.0497562757       -0.2413078913       38.1850638365
  H         5.9952474189       -1.8755958277       38.6451389473
  H         0.9670974094       -1.0648224867       16.7222978394
  H         0.7607514316       -2.4105926793       17.9099336421
  H         2.3243251091       -2.1977693995       16.9149191585
  H        18.2196544168        1.7218049853       23.5390647164
  H        16.6029139305        1.6315514091       24.3602020485
  H        17.6768297929        3.1093710994       24.4593287313
  C        12.6113713926        7.6767217303        9.8461850257
  N        12.3682467008        8.9823110371        9.7400393827
  O        11.7441166999       10.6793801813       11.1668321078
  S        13.2601970282        6.8430041091        8.4890893201
  C        12.5442288841        9.8120234220        8.5782992751
  H        12.9672623097       10.7294666120        8.9213885582
  H        13.1331827662        9.3263212732        7.8394402408
  C        11.2051648925       10.0952332323        8.0109182970
  H        10.6107619102       10.7269276088        8.6523109266
  H        11.2386899344       10.5309370487        7.0146871144
  H        10.5712299658        9.2248826938        7.9714718623
  H         2.5654697212        2.2265941385       11.9300634340
  C         3.3942880521        2.8868387519       12.0408379816
  H         4.1711734187        2.1793027463       12.0035869074
  C         3.5285872975        3.8009090061       10.7397286122
  C         3.2225690086        3.7255839443       13.2911660192
  C         4.7825402757        3.7538493258        9.8853857947
  H         3.3795030645        4.8558230168       10.9828093630
  H         2.7587015513        3.5251576226       10.0242601717
  H         4.1854067505        3.6443022374       13.8173599230
  H         2.4132134368        3.3817033620       13.9865357164
  H         2.9326924519        4.7346868856       13.0296824895
  C         5.0499552179        2.3149087067        9.4497413178
  H         4.7333335116        4.4019243225        9.0574952579
  H         5.5403974986        4.1204594511       10.6033815409
  C         5.7374387131        2.3342167972        8.0774699216
  H         4.1214357136        1.7998919318        9.2210569978
  H         5.6157987288        1.7024563209       10.1591609638
  C         7.0859829082        3.0168848770        8.0576003521
  H         4.9115141445        2.7649607503        7.4667088742
  H         5.8857856244        1.3907443115        7.5292683521
  C         8.2179591619        2.3149305440        8.9486947390
  H         7.3935093235        3.2125774634        7.0096064491
  H         6.8475096011        4.0563821139        8.3892980735
  C         9.5087166549        3.2665207083        9.0556547677
  H         8.4531456849        1.3344955641        8.5349370536
  H         7.7907952952        2.1737655364        9.8905680466
  C         9.1613719544        4.5654965567        9.6802691250
  C         9.9071944927        3.9748397404        7.7836593659
  C        10.6341941331        2.4232197732        9.7343275000
  C         9.3829589649        5.6518719146        8.8802901312
  C         8.6311218842        4.9463230087       10.9063994480
  C         9.8330686376        5.2799822380        7.6106482636
  C        10.3404121514        3.3226238503        6.6206123279
  H        10.0986811872        1.8611570169       10.4724170651
  H        11.2019464028        1.7789913404        9.0464956639
  C        11.7267591772        3.2201930058       10.5302235117
  S         8.9892533367        7.1334793642        9.6348381876
  C         8.4923730580        6.3178050957       11.0265420627
  H         8.5024144873        4.1664406849       11.6746644859
  C        10.1543208821        5.9401221528        6.4604065556
  H        10.2655146334        2.2358481339        6.6610091854
  C        10.6673748367        3.9284210064        5.4511858796
  H        11.3752511485        3.9131913613       11.2288350823
  H        12.2736272184        3.7013024986        9.6992632297
  C        12.7143440345        2.4181068781       11.3716448249
  C         8.0629310563        7.0006479516       12.2835682815
  C        10.6191731731        5.2975281260        5.3318782139
  H        10.1587864754        7.0018957629        6.4104215123
  C        11.0369636628        3.4971607536        4.2119949357
  H        13.5007499920        2.0347938080       10.6514263992
  H        12.2565356929        1.5513157181       11.9337985834
  C        13.4994682016        3.1948039124       12.4241305732
  C         8.1162969181        8.3874614912       12.5578481314
  C         7.5380333541        6.1542397004       13.3784609423
  C        11.1666941996        6.0004190196        4.1160701690
  C        11.2614502244        4.6045695774        3.4403030748
  S        11.2020128211        1.9185511297        3.4084066153
  H        14.3898720255        3.6418506169       11.9668292103
  H        12.9836109104        4.0047928851       12.8367731376
  C        13.8314960026        2.1906327106       13.6267534781
  N         8.5054173754        9.3331018261       11.6162765948
  C         7.8081655051        8.9260485281       13.8152203331
  C         7.2444342365        6.6699075572       14.5843404639
  H         7.3682516487        5.0978613567       13.3134398239
  C        12.5286694968        6.7475951379        4.2344850248
  C        10.2401513010        6.9292789053        3.4028676178
  C        11.4651584196        4.1998474944        2.0962487031
  C        11.6060343492        2.8484245673        1.9712116388
  H        14.5747283325        2.7876152478       14.2179761109
  H        14.3351795802        1.3108282437       13.2273046966
  C        12.6452176773        1.7637330983       14.5105576786
  S         8.3729808957       10.7909382746       12.2701955712
  N         7.9142035120       10.3659016998       13.8002978592
  C         7.3833062035        8.1123687931       14.8803758298
  H         6.8822118587        5.9686257374       15.3296149749
  H        12.4180797174        7.6083269708        4.9553712134
  H        12.7966893467        7.3508909139        3.3256399918
  C        13.6442425422        5.8004379778        4.6908061943
  H         9.8375880496        7.5893894015        4.1648180072
  H        10.7070850644        7.4698394983        2.5958401182
  C         9.0687669663        6.2212368945        2.7525064322
  H        11.6003260417        5.0765002328        1.4992414984
  C        11.8896592542        2.0770871636        0.6482663309
  H        11.7622568440        1.6451272229       13.9279391650
  H        12.7786081271        0.7401695836       14.9176987648
  C        12.4654368668        2.8795709134       15.5785520876
  C         7.1152629123        8.7767876889       16.1328660469
  H        13.4051588791        5.2546574461        5.6076949945
  H        13.8894879841        5.1353774122        3.8697797916
  C        14.9702002468        6.5401471106        5.0051382750
  H         8.7654621179        5.4345913201        3.4323510121
  H         9.4627216743        5.7722383532        1.8085038425
  C         8.0541782147        7.2187482627        2.2856054934
  C        11.9339283564        0.6526287170        0.4676815076
  C        12.2021969993        2.8814726953       -0.5782266336
  H        11.3875157982        3.0288080594       15.8990247320
  H        12.7727352444        3.8500287881       15.2623275221
  C        13.2972609773        2.5103614896       16.8289393675
  H         6.9261714219        9.8474091309       16.0430509413
  C         6.7002328609        8.2672843749       17.3276692244
  H        14.7947837290        7.5113256321        5.4903646520
  H        15.3321528652        6.7312675846        4.0776827535
  C        16.0600755966        5.8189343885        5.7526465337
  H         7.7262020128        7.8893690446        3.1030283873
  H         8.5624617213        7.8884077863        1.6244069835
  C         6.8196122949        6.6866550358        1.5827963216
  N        11.9107295694       -0.2406656745        1.5172170008
  C        12.2593795169        0.0378981746       -0.7164949448
  C        12.4942482979        2.2057700704       -1.7939820029
  H        12.2711401559        3.9191360006       -0.5074646441
  H        14.3250504853        2.9800993827       16.6728723506
  H        13.2383491106        1.4582116982       16.9029076219
  H        13.0222105107        3.0916774522       17.6699441769
  S         6.4292050390        6.6373267377       17.9019982164
  C         6.5943325626        9.2371738263       18.4054358009
  H        15.6720304772        5.2529667306        6.5898114887
  H        16.5265022109        5.0897197514        5.1156136110
  C        17.2264660016        6.7386403441        6.0965741084
  H         6.3185354542        5.9689544273        2.2593569529
  H         7.0818206558        6.0846869099        0.6903472508
  C         5.9555729637        7.8841823218        1.1901119188
  S        12.0816724152       -1.8104388117        0.9253935085
  N        12.3617342751       -1.3609173099       -0.5906801537
  C        12.5044741194        0.7437914487       -1.9456440514
  H        12.7743259848        2.8026913385       -2.6525344641
  C         6.0248986657        7.3174089657       19.4506880524
  N         6.2010444103        8.6451167944       19.5498379940
  O         6.8435848743       10.4243658419       18.2408016714
  H        17.6593325327        6.9773933200        5.1235443771
  H        16.8429013262        7.6589387254        6.5442815894
  C        18.2700885373        6.0996829011        7.0189512158
  H         6.5898986300        8.4287696354        0.4983886206
  H         5.1144514185        7.5176832474        0.6532825383
  C         5.5863019527        8.7889485225        2.3527115363
  C        12.8493398697       -0.0279605238       -3.0753252813
  S         5.2938999739        6.5406892796       20.8877023868
  C         6.2484574829        9.4042727430       20.8200116416
  H        18.1797501161        6.3806735565        8.0433952875
  H        18.0875439045        5.0404238909        7.0013251544
  C        19.7897512256        6.4289155957        6.7161542127
  H         6.4570497070        9.4769497984        2.4270887961
  H         5.3575591691        8.1527042468        3.2392210998
  C         4.4097739495        9.6302652878        1.9120351549
  H        12.5767145972       -1.0869837396       -3.0027163551
  C        13.3897235866        0.3141546903       -4.2839561602
  H         5.5975156347        8.9886368085       21.5905068886
  H         5.9247394916       10.4692068125       20.6596279102
  C         7.6451863681        9.3031679047       21.4234393722
  H        20.4800591556        6.0644157704        7.4058969982
  H        19.9088557439        7.4672127413        6.7612441449
  C        20.1817505703        5.9291636168        5.3017499721
  H         3.4635247871        9.0437789180        2.1285983777
  H         4.3782430731       10.5102669202        2.6262810037
  C         4.3903639204       10.2809039946        0.5143510297
  S        13.9753325826        1.8510944656       -4.7628653168
  C        13.5148360391       -0.7879091341       -5.2969881327
  H         8.5056486639        9.2705283642       20.7200869078
  H         7.7225472558        8.4528279389       22.0923231806
  H         7.7906442035       10.1663242032       22.0610693505
  H        21.1031703617        5.3902769695        5.3255840965
  H        19.3343962760        5.3628846073        4.9573024238
  H        20.2783958582        6.5879252349        4.5148790575
  H         5.2317749965       10.9546815424        0.3303186302
  H         4.4115382601        9.6240886907       -0.3507706682
  H         3.4541800592       10.8714939972        0.4515565352
  C        14.4183690055        1.1111117524       -6.2953016927
  N        14.2105754777       -0.2600618991       -6.3849262137
  O        13.0557896249       -1.9277936549       -5.1701930799
  S        15.0619974743        1.8453587700       -7.7695181886
  C        14.3718809252       -1.0750446728       -7.5658606977
  H        14.7564763133       -2.0612865351       -7.4809061036
  H        15.2420994426       -0.6669745650       -8.1342142513
  C        13.1997112725       -1.0399058782       -8.4722400881
  H        13.0570646468       -2.0027787844       -9.0031823977
  H        13.3601025870       -0.3644838027       -9.2441133895
  H        12.2532535157       -0.9013221368       -7.9351815252
