352
 i =     5900, time =     2950.000, E =       172.7981185825
  H        12.0165600406        5.2313224433       31.6799329214
  C        11.0236557188        5.4529250482       32.1066967617
  H        10.5339373991        4.4314261594       32.3895229368
  C        10.1508740735        6.1745888244       31.1309493087
  C        11.3311840104        6.1123400148       33.3981507795
  C        10.2115064550        5.5639294008       29.7714241610
  H         9.1774232235        6.1702374074       31.5189297167
  H        10.3864039443        7.1853435615       31.1231279165
  H        11.9074579390        6.9799838463       33.2698654251
  H        10.3678291797        6.3986866721       33.8917043118
  H        11.8010166631        5.3126308594       33.9989715203
  C        10.6411672868        6.5402922350       28.7549210439
  H         9.2250301357        5.3386685047       29.6122883078
  H        10.7735964376        4.6563613515       29.6665540132
  C        11.0973589303        5.9169851413       27.4071715049
  H         9.7990075658        7.2735173634       28.5469541613
  H        11.5704264652        7.0813176987       29.0561868850
  C         9.9634975490        5.1436715746       26.6934372363
  H        11.9544636911        5.2177784432       27.3378818162
  H        11.3144316878        6.7361837135       26.7373163348
  C         8.6507118454        5.8748894277       26.4347029609
  H        10.4015808903        5.0318472696       25.7043793331
  H         9.8237294248        4.0989299510       26.9146332350
  C         7.5580692078        5.0867782544       25.5360749156
  H         8.2237545514        6.1525085265       27.3896581861
  H         8.9104962909        6.8018864014       25.8988654073
  C         7.3421853659        3.6714930868       26.2005654059
  C         8.0255340417        4.4455885717       24.2731394615
  C         6.3805010897        5.9239559420       25.3699527496
  C         7.4316050820        2.6031027184       25.3010482048
  C         6.9570327548        3.3590463960       27.4820588931
  C         8.0195128784        3.0386940747       24.1130503893
  C         8.4196789734        5.1097643722       23.0759433638
  H         6.7441890777        6.7024194148       24.7385809967
  H         6.3035552248        6.6094289557       26.3200352653
  C         5.1365108654        5.2135872876       24.8588769714
  S         7.0210561245        1.1076908084       26.0335491321
  C         6.5981260182        1.9908039310       27.4817705859
  H         6.9902404314        4.2009209089       28.1390005315
  C         8.3270822464        2.4768868479       22.8839729523
  H         8.3982122141        6.1899429135       23.0210974924
  C         8.7569766590        4.4631980460       21.8864206204
  H         5.3704335249        4.8410954960       23.9242171965
  H         4.8833458840        4.3082574473       25.4339313533
  C         3.8829869808        6.0436346218       24.4694812325
  C         6.0672176088        1.3435836551       28.7425236256
  C         8.7563224878        3.1175963806       21.8280296557
  H         8.0312186003        1.4916594912       22.7285997540
  C         9.1374601388        4.8712789392       20.6340223447
  H         3.2975030777        5.5409534239       23.6078865568
  H         4.1509875619        6.9804325527       24.0228518652
  C         3.0636970724        6.3473068979       25.7198410156
  C         6.0069504759       -0.0871679132       28.9940312796
  C         5.5431756194        2.1875222381       29.8357155296
  C         9.1084707891        2.4334642864       20.5193440081
  C         9.2958819956        3.8131584683       19.8071144763
  S         9.4343230762        6.3972200066       19.8379468500
  H         2.2311655014        7.0476287121       25.4754397297
  H         3.6308747790        7.0478861977       26.3830112719
  C         2.5469257119        5.2168757626       26.5004641876
  N         6.2527137711       -1.0451856518       28.0450936276
  C         5.6947569331       -0.6083490729       30.2660154877
  C         5.2071201520        1.6425464612       31.1024636078
  H         5.5082622919        3.2757984921       29.7367143872
  C         7.9167602125        1.6134360702       19.8871195713
  C        10.3784899108        1.7175152109       20.6271593899
  C         9.6030824961        4.1452563831       18.4715261658
  C         9.7459526585        5.5139974543       18.3727871771
  H         1.8297743363        4.8693454985       25.8110127046
  H         3.2552181594        4.4543187752       26.5555947413
  C         1.9584350244        5.5179998212       27.8905348529
  S         6.1827520256       -2.4636688120       28.7988955970
  N         5.8758946248       -1.9482884510       30.3122139925
  C         5.3383753632        0.1861857824       31.3380658089
  H         4.8377316879        2.4059559490       31.9019946061
  H         7.2981012939        1.2440619390       20.6634011493
  H         8.1389110270        0.7154472830       19.3113995928
  C         6.8638981095        2.4350955750       19.1848385929
  H        10.4672686568        1.2768960501       19.6683090245
  H        10.2818723158        0.8516873277       21.3719367505
  C        11.6296720693        2.5402580870       20.9216484789
  H         9.9071194195        3.2485549484       17.8508236680
  C        10.0737823153        6.2237500092       17.0645952595
  H         0.9879148614        5.1214102444       28.0165755045
  H         1.7255519724        6.5322159771       27.8729063680
  C         2.9390647048        5.2956722170       28.9649216821
  C         5.1678288727       -0.4674105946       32.6293449601
  H         7.3230960553        3.1205289809       18.3799618656
  H         6.4329025540        3.0082007003       20.0187274487
  C         5.7683249554        1.5088627487       18.5642948000
  H        11.4410372301        3.0968889123       21.8627044777
  H        12.0310801140        3.1170862925       20.1027711070
  C        12.7003320873        1.5615040470       21.2401940838
  C        10.3443474648        7.6397480363       16.9565595872
  C        10.1285985065        5.4422034254       15.7937623265
  H         2.8358413798        4.1589973693       28.8954549701
  H         3.9207371341        5.7959188370       28.7669487353
  C         2.4303022531        5.7187314213       30.4337516329
  H         5.5659624569       -1.5311613697       32.5576634179
  C         4.8697385563       -0.0961374927       33.8639605097
  H         5.3724931494        0.9447913693       19.3910380327
  H         6.1483552606        0.9133574005       17.7739400208
  C         4.6740615610        2.2607450664       17.8469993805
  H        12.5169175936        1.2470773591       22.2469706585
  H        12.5334025484        0.7227231148       20.5454677226
  C        14.1151625374        2.0177957585       21.3781423791
  N        10.0924468079        8.5995533786       17.9257114801
  C        10.6126279805        8.1968979220       15.7865255669
  C        10.3513510933        6.0325443718       14.5259041340
  H         9.8436064945        4.4828523052       15.9352285091
  H         3.2740141776        5.9826763836       30.9891952780
  H         1.8874800112        6.7094128817       30.4313370709
  H         1.8528619178        4.9687084620       30.9404985224
  S         4.3479148593        1.4595211382       34.2972913756
  C         4.8558973571       -1.0714802512       34.9284908289
  H         4.5879187736        3.3160457978       18.2521227814
  H         4.9262196548        2.4156734972       16.7606701256
  C         3.2579850945        1.7046910172       17.8558036042
  H        14.3524275527        2.7931613852       20.6135018011
  H        14.7880550119        1.1783093484       21.0194320568
  C        14.3674626781        2.3562395547       22.8791350310
  S        10.4562109830       10.0410327077       17.4257599418
  N        10.7602891639        9.6008438423       15.8724179442
  C        10.7447900870        7.4523365178       14.5176904895
  H        10.2491447638        5.4661848474       13.6353923006
  C         4.1123354878        0.8533709503       35.9043615936
  N         4.4277529565       -0.4686572654       36.0594377096
  O         5.0098242164       -2.2907738509       34.8790868487
  H         2.8026922935        2.3702902117       17.2268416954
  H         2.8617300259        1.6906360174       18.8883615926
  C         3.1815061523        0.2609549169       17.3334205914
  H        13.5600524487        3.0321096814       23.3271414301
  H        14.6307935063        1.5218273852       23.5620174074
  C        15.5963219642        3.1909315744       22.9742441897
  C        11.0431893669        8.2525076808       13.3538230027
  S         3.9959743127        1.7750577550       37.3497732978
  C         4.4180318932       -1.2380471899       37.2897867746
  H         2.2757843273        0.3345049984       16.7407423951
  H         3.8982238278        0.0051663026       16.6149811597
  C         2.9587850642       -0.6626040575       18.5123725474
  H        15.3414841772        4.1285431804       23.5620754597
  H        15.8692314757        3.4751869038       21.9747723629
  C        16.7354586858        2.6020191891       23.7091853311
  H        10.5388040914        9.1688368806       13.3672330743
  C        11.5004055423        7.9044355244       12.1032301235
  H         3.5082845711       -0.7760762193       37.9141385377
  H         4.0652367000       -2.2836147900       37.1892565263
  C         5.7936663523       -1.0530506942       38.0347989840
  H         3.5335678846       -0.3311296448       19.3138110515
  H         3.2194700217       -1.7258602616       18.2686378945
  C         1.4410508011       -0.7687337164       18.9293706137
  H        17.1014481876        3.3915235263       24.4244557172
  H        16.5301742468        1.7245637251       24.3200891987
  C        17.9691452509        2.2526031039       22.7984666620
  S        12.0154399360        6.2927361310       11.7183889881
  C        11.5720942237        8.9187976641       11.0595024936
  H         5.9299589305       -2.0312206535       38.5560137534
  H         6.5749925106       -0.6516162864       37.4347171413
  H         5.7622427525       -0.4190538589       38.8221310913
  H         1.3107431359       -0.4536389564       20.0088154103
  H         1.2246412181       -1.8229416545       18.7315893802
  H         0.7558171771       -0.2777502309       18.2498927528
  H        18.3407689743        3.0848286534       22.2369413235
  H        17.7617048979        1.4749707447       22.0230648332
  H        18.6139392639        1.8433112185       23.4586983318
  C        12.5423943434        7.0720285024       10.2025895545
  N        12.2887109944        8.4210525712        9.9953866831
  O        11.1686476921       10.1269607992       11.1992067534
  S        13.2947554126        6.2027455222        8.8934241934
  C        12.4469243803        9.2106169623        8.8017819244
  H        12.4363561107       10.1911838158        9.1699159230
  H        13.5084118621        9.0970254838        8.6020815143
  C        11.4394699850        8.9654558815        7.6764745508
  H        10.4370792614        9.1987059333        8.0158332512
  H        11.6694952216        9.4877568363        6.6704542293
  H        11.6119287642        7.9137457357        7.5212867812
  H         4.6972713456        1.6398541048       12.6813115300
  C         3.9549079426        2.5058430206       12.8608484072
  H         4.6029035841        3.3522415807       12.8173578266
  C         2.9978651786        2.4596658037       11.6924729925
  C         3.2706488198        2.4393611248       14.1911483996
  C         3.8183322136        2.5707248990       10.4754024329
  H         2.3298988141        3.3490494495       11.9621461262
  H         2.3696218564        1.5611851399       11.5885907461
  H         2.0912343774        2.4549057491       13.9992461170
  H         3.3200959262        3.3308606320       14.9437498772
  H         3.5366530882        1.5324978588       14.7673392069
  C         4.2816526929        1.2428852194        9.9036612058
  H         3.2373983629        3.0790397792        9.6707724075
  H         4.5810424067        3.3867796248       10.5936513820
  C         5.2002482138        1.3036614616        8.6297974925
  H         3.3769708522        0.6689099770        9.6722775656
  H         4.8303212611        0.6565642748       10.7166655062
  C         6.4205787894        2.2302617213        8.5902785405
  H         4.5694208409        1.6815649728        7.8393766474
  H         5.5053599093        0.2982507364        8.3729311618
  C         7.6494268162        1.5758037714        9.2445379620
  H         6.4871135523        2.7024414876        7.6032764080
  H         6.0008438983        3.0732423354        9.2679619388
  C         8.8243458037        2.5768554913        9.2946533956
  H         7.9284344119        0.7389079088        8.5687511835
  H         7.4287114719        1.1939378972       10.2553482002
  C         8.3835340262        3.8694608404        9.9074167327
  C         9.1976448972        3.2025307108        8.0026420324
  C        10.0210125610        1.8295984646        9.9750837285
  C         8.7097497952        4.9577935742        9.1184721108
  C         7.9235820983        4.2892645586       11.2371093042
  C         9.2356359594        4.5743930217        7.8704284829
  C         9.6188130105        2.5980882072        6.8164915198
  H         9.7693913033        1.3863753390       10.9991402025
  H        10.4069411046        0.9910470562        9.5438420462
  C        11.1276449264        2.8465722133       10.2692510857
  S         8.4302235891        6.4352651845        9.8292204693
  C         7.8575568941        5.6362900580       11.3016582628
  H         7.7785279753        3.4838281551       11.9220787542
  C         9.7108621668        5.1740532358        6.7411598868
  H         9.5678962460        1.5501991955        6.6364257582
  C         9.9968409823        3.1687032183        5.6569250297
  H        10.8034453269        3.7929781793       10.7821604213
  H        11.6297204987        3.1822673418        9.3228253504
  C        12.3742994737        2.2734824978       11.0779721716
  C         7.5247344053        6.3383504787       12.5660992284
  C        10.0974935990        4.5772486999        5.5845353739
  H         9.8748804888        6.2581436580        6.7702852096
  C        10.3636498876        2.8233897598        4.3906983066
  H        13.2765812755        2.9440645268       11.3300026041
  H        12.7006857973        1.2775368839       10.8041754159
  C        11.8246740056        1.9357815088       12.5299904611
  C         7.5868813757        7.7724412819       12.7840234940
  C         7.1130379627        5.4799442315       13.6940436416
  C        10.6343721920        5.2603854392        4.3913790264
  C        10.7383530602        3.9096071324        3.6427500893
  S        10.6761164824        1.3467184457        3.5993341583
  H        11.1355710015        2.7567562742       12.8683389104
  H        11.2876936381        1.0179439642       12.3826733215
  C        12.9419797116        1.8657153274       13.5567839365
  N         7.9561753450        8.6800737023       11.8907706081
  C         7.5524628317        8.2950543254       14.0278988482
  C         7.0276128354        6.0420081514       14.9158467211
  H         6.7381409162        4.4736406637       13.6301431841
  C        12.0360391523        5.9369363337        4.5825191370
  C         9.5410172490        6.1229132323        3.7253783937
  C        11.1820721936        3.5841739373        2.3615087021
  C        11.1597028935        2.2304537886        2.1666709615
  H        13.7602243930        2.4568272311       13.2176371551
  H        13.3800951999        0.8190093952       13.5988804319
  C        12.5512154462        1.9570301832       14.9952035436
  S         7.9986160875       10.0924999774       12.5932224690
  N         7.7398412670        9.7097195606       14.0958512552
  C         7.2640002973        7.4457978899       15.1671348649
  H         6.8123429852        5.3787963113       15.6543706051
  H        12.0308961053        6.7057838058        5.3805455329
  H        12.5581306521        6.5051122460        3.8316425075
  C        13.0945077575        4.9638922464        5.0701026636
  H         9.2091195552        6.8569502210        4.4559241367
  H        10.0617773394        6.6416863450        2.8636760057
  C         8.2140418815        5.3437306827        3.1860063657
  H        11.5452418423        4.3538603378        1.6137843978
  C        11.4374479305        1.4770315030        0.8745787404
  H        11.9549163269        2.8037668653       15.1251514666
  H        11.8215494058        1.1264047350       15.3350565906
  C        13.6086385722        1.9314979983       16.0150397679
  C         7.1333109414        8.0789292032       16.4976028400
  H        12.7601783261        4.2979811004        5.7789214361
  H        13.2581916298        4.2838704123        4.2778194165
  C        14.4151366567        5.6469386059        5.4573314080
  H         7.7574662332        4.8269160448        4.0698049390
  H         8.3792624266        4.6839808006        2.4430116787
  C         7.2188277920        6.2239280247        2.4114553371
  C        11.4172780468        0.1189876493        0.6018201446
  C        11.7218362507        2.2826340483       -0.3401608565
  H        14.1145071242        2.9048762693       15.9536869741
  H        14.3501280571        1.1123150520       15.9340180535
  C        13.0312282863        1.9380266485       17.4497624316
  H         7.5010213214        9.1056753067       16.5287137318
  C         6.7113079497        7.7003489802       17.6914928705
  H        14.1691522228        6.3619425987        6.2273840587
  H        14.8221095109        6.2256122946        4.6110221611
  C        15.6145387178        4.8575318696        5.8510564679
  H         6.7839518109        7.0085098146        3.0699123708
  H         7.6452413649        6.7481241059        1.4802987674
  C         5.9178421738        5.5363944170        1.9442483503
  N        11.1727703525       -0.9104521009        1.5524829031
  C        11.8292664821       -0.5589475506       -0.6176415293
  C        11.9698494056        1.7373950780       -1.5790656845
  H        11.4318009399        3.2556941050       -0.2642514763
  H        12.2812675371        1.1962787688       17.5258893008
  H        12.7710227804        2.8879818633       17.8316310259
  H        13.8577532681        1.6125440505       18.1914124935
  S         6.2726678298        6.1065439050       18.0999010099
  C         6.6569993703        8.7525153234       18.7213756580
  H        15.1722527818        4.2931095957        6.6845366846
  H        15.9652424710        4.1677014486        5.1792502763
  C        16.7253918844        5.6004534873        6.4044868738
  H         5.2274629656        5.1504956665        2.7633457793
  H         6.1570925369        4.6638732652        1.4250334463
  C         5.1299293004        6.4833338198        1.0694619077
  S        11.4092818820       -2.3444369287        0.8770429155
  N        11.9747838364       -1.9394737836       -0.5365294876
  C        12.1869866307        0.2208304206       -1.7901440120
  H        12.0176653753        2.3295350964       -2.4075707239
  C         6.1156817780        6.8121070712       19.7175647111
  N         6.2092222623        8.1861886413       19.8368568229
  O         6.7492843090       10.0001829648       18.5549868917
  H        17.0045022602        6.4386737575        5.7318516694
  H        16.3609336089        6.1944557711        7.1613980822
  C        17.8807313204        4.9199822600        7.0659074559
  H         5.7064928176        6.9278999191        0.3951138525
  H         4.3508095317        5.9447292823        0.6862441310
  C         4.2797305414        7.5281007036        1.9057900423
  C        12.5091664359       -0.4385152316       -2.9823629684
  S         5.5889454710        5.7599915394       21.0624308780
  C         6.1247576917        8.9291324147       21.0955712979
  H        17.5946985782        4.4795926998        8.0653148238
  H        18.2902460637        4.1599089783        6.4287205413
  C        19.0769262564        5.8398942524        7.0727530222
  H         4.8765820335        7.7427810478        2.7849762995
  H         3.3818926752        6.9659887092        2.2051689243
  C         3.8590428594        8.7749852860        1.1693880906
  H        12.3584431540       -1.5679933314       -3.0178393965
  C        12.9637428739        0.0298783529       -4.1785911896
  H         5.5955447294        8.2781702597       21.8484416542
  H         5.5768684446        9.8991293727       21.0902271529
  C         7.5144858851        9.2088472760       21.7112074575
  H        19.8943673384        5.4492141745        7.7392067350
  H        18.8533451983        6.8001816043        7.4583903118
  C        19.8236297670        5.9833284788        5.7353776319
  H         3.5338346055        8.6004595119        0.1041361840
  H         2.9461395648        9.1752564147        1.6039663676
  C         4.9177946018        9.8454011320        1.1660425787
  S        13.4274012800        1.7061705647       -4.5764814873
  C        13.0745027401       -0.9680646296       -5.2881478107
  H         8.3863609448        9.0073868467       21.0890620793
  H         7.5808151682        8.5678126414       22.5035419318
  H         7.5058867473       10.2471268182       22.1360533980
  H        19.5842386189        6.8803773750        5.1798455056
  H        20.9835372043        6.0193849685        5.9579631019
  H        19.6568815722        5.0575106329        5.1360808590
  H         5.0665511312       10.3640556391        2.1006083119
  H         5.7907202716        9.3707775686        0.8366816977
  H         4.6501087821       10.5588150960        0.3414781176
  C        13.9132443126        1.0942899723       -6.1001812560
  N        13.8185477659       -0.2984255441       -6.3123893763
  O        12.8410286652       -2.1410052460       -5.2933037604
  S        14.8036883436        1.9255941362       -7.4287881974
  C        14.0253844921       -0.8848750372       -7.6454506157
  H        14.3628746443       -1.9698071308       -7.5112268684
  H        14.9241371348       -0.4604814863       -8.0494761857
  C        12.8013483917       -0.7083844749       -8.4848305110
  H        12.8410299748       -0.9489187916       -9.5307325634
  H        12.6971366197        0.3665485492       -8.4553422184
  H        11.9323329827       -1.1795806797       -8.1813750724
