352
 i =   129600, time =    64800.000, E =        99.8800799821
  H        10.1001146404        6.1904651880       30.6875203301
  C        11.0501580554        6.1878661888       31.1565627145
  H        11.3423550337        7.1514848954       31.4283432075
  C        12.1415571231        5.7248200784       30.2112643117
  C        10.9748898768        5.2247468561       32.3562995150
  C        11.7081065047        4.6444155725       29.1908248093
  H        12.5384129275        6.5970919055       29.6129362859
  H        13.0052175860        5.2602607676       30.7645003107
  H        11.2383180594        4.2376866878       31.9792585779
  H        11.6199027862        5.4978778747       33.1935064646
  H         9.9637412324        5.1890801739       32.7917235121
  C        11.9433809211        4.8583501349       27.7183080251
  H        10.6019672414        4.4745422784       29.2669144157
  H        12.1999596009        3.6931362368       29.5776188003
  C        10.8295599146        5.7401488020       27.0634171061
  H        12.8497425059        5.4562681657       27.5713490455
  H        12.1972968260        3.9216176690       27.1638531462
  C         9.6871031374        4.9849875658       26.4549024358
  H        11.3521733426        6.3840333784       26.3365949112
  H        10.3597885727        6.4518272212       27.8335705278
  C         8.5370857717        5.8981981809       26.0774195177
  H        10.1162983823        4.4542334637       25.6225512654
  H         9.4002901828        4.2714505812       27.1922015691
  C         7.3304269202        5.2630142969       25.3265951725
  H         8.2759212638        6.5183771602       26.9396782605
  H         9.0801558684        6.4282013428       25.4057496913
  C         6.9680346536        3.9831131232       25.9861476913
  C         7.6679531887        4.5395937822       24.0320714863
  C         6.0784791980        6.0616183716       25.2630359128
  C         7.1878095766        2.8469515266       25.2644553626
  C         6.4466026325        3.6238718421       27.2617585429
  C         7.7126988583        3.1957564540       24.0192215696
  C         8.2027375888        5.0860327361       22.8294347976
  H         6.0869452260        6.9060305009       24.5272610557
  H         5.9705625630        6.5664692208       26.2165231385
  C         4.7576985256        5.2019420475       25.0185010411
  S         6.7920751714        1.4136815553       26.0379766855
  C         6.2948366635        2.2782838533       27.3943244206
  H         6.3118233629        4.4074650058       27.9721321779
  C         8.0488744544        2.4723569257       22.9172468450
  H         8.1643328593        6.1532604935       22.7389914006
  C         8.5971832334        4.3965058773       21.7579908330
  H         4.7895055007        4.8498675638       24.0051181115
  H         4.5921300356        4.2862055602       25.5869968239
  C         3.4520341782        5.9987310216       25.1035618228
  C         5.8439196872        1.6389807330       28.6665901280
  C         8.5596237124        3.0418300442       21.7321605012
  H         8.0045554559        1.4494798073       23.0145468529
  C         9.0051321827        4.7860116064       20.4802923754
  H         2.7168184478        5.6840348166       24.3046967200
  H         3.7431458406        7.0187818961       24.9292107742
  C         2.7241732140        5.8110441712       26.4809045489
  C         5.9385565254        0.2421326913       28.8931760081
  C         5.1883158850        2.4131295252       29.6874237970
  C         8.9087166917        2.3571187969       20.4270486686
  C         9.1251628884        3.6453509251       19.7080572355
  S         9.3366216753        6.2825575625       19.6202631713
  H         1.7331946419        6.3982529624       26.4321771537
  H         3.3762130329        6.3763333295       27.2411244459
  C         2.5587921936        4.3512768785       26.9991919464
  N         6.2931753136       -0.7684677221       27.9580556248
  C         5.6617505004       -0.2915752129       30.1470124681
  C         4.8920195705        1.8512388579       30.9652939267
  H         4.9146328933        3.4396716825       29.4582823965
  C         7.8274125200        1.4707598711       19.8176555392
  C        10.1697345720        1.5261189471       20.5116050318
  C         9.5573042742        4.0094103223       18.4032364386
  C         9.6511146909        5.3310623385       18.2284823451
  H         2.4464255007        3.6531534542       26.1150958050
  H         3.4516682213        3.9404928197       27.6184558446
  C         1.3529749343        4.1837701448       27.9421592070
  S         6.2816894513       -2.1989872652       28.7405419910
  N         5.9401180238       -1.6762614402       30.2016927104
  C         5.2762862231        0.4517317728       31.2416621596
  H         4.3642943123        2.4828165363       31.7187334499
  H         7.7684463080        0.5131356911       20.2978768955
  H         8.1349754468        1.3846369914       18.7971224327
  C         6.4516995780        2.0213783139       19.8625372172
  H        10.2794345880        1.0653255924       19.5116947258
  H         9.8830333123        0.7877598587       21.2739165679
  C        11.4344901902        2.3097637544       21.0048597470
  H         9.7061530921        3.1791795986       17.6651688304
  C         9.9634050981        6.0967022237       16.9718318212
  H         1.1718719428        3.1667470346       28.2299510937
  H         0.5877747415        4.3418673244       27.2830677144
  C         1.3336267662        5.3276281904       29.0085516574
  C         4.9425072920       -0.2092421200       32.4909192016
  H         6.6632604517        3.0638831020       19.9955891878
  H         5.9718896072        1.7585918991       20.7960559985
  C         5.7044464258        1.8647299814       18.5806427640
  H        11.1054090594        2.8939388244       21.9693289057
  H        11.5045322342        3.0963604700       20.2467457229
  C        12.6741687876        1.4783946667       21.1457269123
  C        10.1072463598        7.4819692063       16.8152352992
  C        10.2806756416        5.3297924880       15.7879582415
  H         1.4538239651        6.3249402518       28.6320467382
  H         0.4811621303        5.3805213044       29.6170738043
  C         2.4959775343        5.1923419170       29.9073205857
  H         4.9743708551       -1.2386334226       32.5412630372
  C         4.7369835337        0.2306176781       33.7926111336
  H         5.8248097761        0.8700499274       17.9760246801
  H         6.1498103932        2.5904896875       17.9932367713
  C         4.1896546034        2.2016069671       18.7249698974
  H        12.6550301333        1.0607567702       22.1118950734
  H        12.6134946911        0.6614556748       20.5300773414
  C        13.9850602957        2.2360330889       21.0106034420
  N         9.8716246898        8.4527049627       17.8132186712
  C        10.4148139296        8.0786214715       15.6040861526
  C        10.5920330155        5.8963255964       14.5291749203
  H        10.3004573713        4.2273224200       15.8007044040
  H         2.7233106604        4.1248211617       30.1490204116
  H         3.3809667798        5.7135515963       29.4864062526
  H         2.1455422004        5.6462929272       30.8050724432
  S         4.5623225091        1.8623100011       34.2329367051
  C         4.7276621642       -0.7477862785       34.8600695876
  H         4.1103697198        2.9871645214       19.4642458661
  H         3.9316004514        2.6214727557       17.7437278263
  C         3.3455871760        0.9037564226       18.9814007536
  H        13.8063877086        3.3013601658       20.8893711644
  H        14.5263147609        2.1512035392       20.0458859253
  C        15.0245582087        1.9451545893       22.0965178447
  S        10.0552735009        9.9490967519       17.1939124480
  N        10.2694071996        9.4370321670       15.6493355389
  C        10.7120674840        7.3555013483       14.4176480004
  H        10.7576770266        5.2136543066       13.7374928140
  C         4.2748790333        1.1485739030       35.8728992645
  N         4.3508343205       -0.1757008860       35.9855244998
  O         4.8283044511       -1.9850303197       34.7570079173
  H         2.4224827010        1.2883049054       19.2560227665
  H         3.6810819672        0.2964188035       19.8949159304
  C         3.2222935456        0.0283538273       17.7660011891
  H        14.6615947653        2.2046792667       23.1198356849
  H        15.3890120149        0.9325529614       22.1927199690
  C        16.2580086816        2.8157447166       21.8581520694
  C        11.0097409247        8.0907324297       13.2539377384
  S         3.9232191102        2.0865751750       37.2888843089
  C         4.2713077853       -0.9675125897       37.2204845960
  H         2.5731002436        0.4316569800       17.0067389978
  H         4.2069351252       -0.1481146811       17.2441634817
  C         2.5913850238       -1.2980202061       18.1866675458
  H        16.1474067837        3.8789985673       22.1886473864
  H        16.4891332165        2.9295881016       20.7971558861
  C        17.4776775497        2.1854589500       22.5369474686
  H        10.9698955724        9.1356678787       13.3007426165
  C        11.4762719570        7.7662799722       12.0402455935
  H         3.5506538987       -0.4877525858       37.9734067022
  H         3.8260736043       -1.9604998305       37.0770707550
  C         5.6429372125       -1.0974842797       37.8235597686
  H         2.0816817895       -1.2703914483       19.1859501234
  H         3.5002016660       -1.9823202101       18.2092408809
  C         1.6490147008       -1.8527584980       17.1096804854
  H        17.6500788135        1.1850026463       22.2515257436
  H        18.3251561128        2.7673632444       22.3348543656
  C        17.2792932510        2.1874557852       24.0476211486
  S        12.0365950246        6.2499378597       11.5121517879
  C        11.5134382433        8.8114519745       10.9831730562
  H         6.3502170552       -1.6619646121       37.1892596051
  H         6.0557217691       -0.1322558584       38.0259307963
  H         5.6117627500       -1.5803172702       38.8002609596
  H         0.8171065616       -1.1158232618       16.9505271166
  H         1.2658745690       -2.8198706199       17.3734863928
  H         2.1804616882       -1.7879360691       16.1567019073
  H        16.7134417888        3.0682720613       24.2766914919
  H        18.1805964582        2.1908134955       24.6034454071
  H        16.7861525899        1.2498942025       24.3419471073
  C        12.4073143226        7.0500693254        9.9745831682
  N        12.2630685983        8.3983190092        9.9207732746
  O        11.1364220048        9.9649141558       11.1164162805
  S        13.2505362268        6.3819265665        8.5542746314
  C        12.4623359009        9.2038784517        8.6837086007
  H        12.6521230313       10.2379021422        9.0795294158
  H        13.3951024437        9.0078306021        8.2533955278
  C        11.1334853519        9.1537241561        7.8966115561
  H        10.3100319258        9.4509546379        8.5459674080
  H        11.0936355954        9.7347010473        6.9667184547
  H        10.8818674368        8.1126631407        7.7193083591
  H         4.5546043597        1.5442027334       13.4612387138
  C         4.0017166973        2.4725209891       13.4140777011
  H         4.6005529181        3.3952309454       13.2072472772
  C         3.1053947347        2.4005843670       12.1422540319
  C         3.0943212201        2.6575742226       14.6460963991
  C         3.8013566752        2.8611074047       10.8467759528
  H         2.0908410851        2.8521288718       12.2739444566
  H         3.0132921630        1.3631124507       11.8966049780
  H         3.6825451846        2.7133521069       15.4985082800
  H         2.4705338159        1.8069259618       14.6922376531
  H         2.3710755833        3.5194555667       14.5421754652
  C         4.4810721414        1.6316826227       10.2197775906
  H         2.9885892584        3.1107405606       10.2253079978
  H         4.5333732253        3.7092790288       10.8978713834
  C         5.1483013650        2.0337611753        8.8974445987
  H         3.7848313326        0.7881178597        9.9982393646
  H         5.2436605048        1.2521220974       10.9506812419
  C         6.4696415253        2.8208934615        8.8581855814
  H         4.4795028139        2.6630566678        8.2513669417
  H         5.2861592884        1.0974488226        8.3203120163
  C         7.7676684807        2.0848280649        9.0416708179
  H         6.4084974117        3.2437448977        7.9030277085
  H         6.2577033479        3.6432272650        9.5583096272
  C         9.1110783061        2.8739923138        9.1881920530
  H         7.9285552841        1.3390019448        8.1988077437
  H         7.5922164736        1.4209758682        9.8667274685
  C         8.7485078255        4.2337826954        9.8882683388
  C         9.4747139368        3.5917347316        7.9575882956
  C        10.3118931734        2.1503685081        9.8767920468
  C         8.8986667108        5.3236630793        9.0514744185
  C         8.2919043351        4.6203586590       11.1379225105
  C         9.4345342556        4.9367277866        7.8534420859
  C         9.9859615513        2.9215833314        6.8134371501
  H         9.9628554354        1.8310035380       10.8506406875
  H        10.6611354784        1.2219640879        9.4031068083
  C        11.5511551135        2.9578261878       10.1700886855
  S         8.4816116484        6.8223528878        9.7926108562
  C         8.0154065834        5.9709698366       11.1952475907
  H         8.3237889130        3.8057590214       11.8011263670
  C         9.7714448170        5.5933183716        6.6599354180
  H        10.0705317858        1.8875147162        6.8278436225
  C        10.3272349291        3.5505643234        5.6450929144
  H        11.3501583544        3.9359840327       10.5170481118
  H        12.1184244473        2.9577665043        9.2029407151
  C        12.4245791454        2.2998721844       11.2038974595
  C         7.5715381341        6.5716783643       12.4831293499
  C        10.2838542869        4.9099249048        5.5209461653
  H         9.6573710583        6.6933658041        6.6898976162
  C        10.6264318791        3.1561586147        4.3474288232
  H        13.5379486734        2.3975014979       11.0456087355
  H        12.1938213266        1.3125530455       11.0645047773
  C        12.0891188443        2.6919791541       12.5848924070
  C         7.6520344710        7.9528829662       12.8167247511
  C         7.0631558310        5.7251517610       13.6276774636
  C        10.6495072922        5.5576906624        4.2649867980
  C        10.8867366974        4.2490730767        3.5883180266
  S        10.7645551945        1.5808953844        3.5333504356
  H        12.6030927934        3.5448380787       12.8526922859
  H        11.0316192813        2.8292854718       12.7397423098
  C        12.6046676232        1.6701618450       13.5105979470
  N         8.0396915522        8.8896456308       11.8966640729
  C         7.3428885254        8.4830771688       14.0481089590
  C         6.8849278583        6.2249997916       14.9293369788
  H         7.1311660963        4.6377778987       13.4512217732
  C        11.9560708559        6.3249119847        4.4722756737
  C         9.4811006526        6.4077207195        3.6189966655
  C        11.3959255746        3.8323752614        2.3332465140
  C        11.3795354837        2.4465892801        2.1547440491
  H        13.4514110110        1.1534285472       13.0105013180
  H        11.8393110944        0.9382181863       13.6269187419
  C        12.9637118683        2.3361149238       14.8532066271
  S         7.7599804737       10.3702026041       12.5264819704
  N         7.4339675350        9.8295883130       14.0450508073
  C         7.0445521277        7.7267142183       15.1910288037
  H         6.6327192114        5.5032016809       15.7011651426
  H        11.8687567110        7.2999239631        4.9970882905
  H        12.2816638014        6.6777236799        3.5066178225
  C        13.0773329469        5.5575649554        5.1961339306
  H         8.9881856574        6.8637874667        4.4618012463
  H         9.8621600741        7.2317346321        3.0384485875
  C         8.4639547000        5.5106818318        2.8251429661
  H        11.7741542702        4.5856894878        1.7244943327
  C        11.7057975225        1.6816091403        0.9441264430
  H        14.0050986548        2.6433346838       14.7892091318
  H        12.3500715026        3.2409595815       15.0266009083
  C        12.6578456093        1.4349953412       16.0477505695
  C         6.8039100678        8.3160445522       16.4710556710
  H        12.8257851142        5.1011498591        6.1336764640
  H        13.3275770157        4.7729813033        4.4766665266
  C        14.4316215262        6.3433655676        5.3897403671
  H         8.0354393405        4.7154255156        3.4435153629
  H         8.9352987709        5.1142333073        1.9868420929
  C         7.2275075090        6.3104669425        2.3927689523
  C        11.6453502950        0.2996826326        0.7381857929
  C        11.8771570815        2.4624885673       -0.3817324587
  H        13.3018250689        0.5348903238       15.9495728303
  H        11.6073629494        1.1092125774       15.8909480067
  C        12.7591952986        2.0985588319       17.4789729519
  H         6.9966854420        9.3520799747       16.5463146514
  C         6.3920312125        7.8242148044       17.7122439699
  H        14.4673646713        7.2025227341        6.1421941667
  H        14.6956186784        6.7858924954        4.4275604037
  C        15.5135293578        5.3334680570        5.7059228281
  H         6.8742706189        6.8305201336        3.2939816742
  H         7.5900857861        7.1134464283        1.7689858159
  C         6.1320573990        5.4238209533        1.8094241091
  N        11.5533580330       -0.6486947525        1.8272967997
  C        11.8828102664       -0.3445582479       -0.4758432950
  C        12.0173312581        1.8168720748       -1.6150869999
  H        12.0912551584        3.5178481088       -0.3141861016
  H        11.9098639661        2.7111784788       17.7703061436
  H        13.6151827304        2.7719792242       17.4308184140
  H        12.9154595567        1.3209002669       18.1564447899
  S         5.9435109163        6.2750806265       18.1599658521
  C         6.5072018748        8.7966225308       18.8272978631
  H        15.1252884538        4.7383195734        6.5369316846
  H        15.5780484177        4.6626232462        4.8654613157
  C        16.8704228932        5.9278579213        5.9180971808
  H         5.6491558341        4.9739363480        2.6678383208
  H         6.5877815939        4.6961057534        1.1335123889
  C         5.0885105458        6.1482707398        0.9571183806
  S        11.5294506568       -2.1687252991        1.1304812301
  N        11.7455444463       -1.7263897853       -0.4120935357
  C        12.1072770251        0.3239843060       -1.6995098089
  H        12.2649929722        2.3412473801       -2.5661767873
  C         5.9341910758        6.8101690323       19.7963004692
  N         6.1542180084        8.1173289526       19.9684151174
  O         6.7130723761        9.9524281720       18.7210632084
  H        17.2880259650        5.9983040536        4.9144282247
  H        16.7769519066        7.0133341360        6.1512728400
  C        17.8293973554        5.2495467666        6.7940886149
  H         5.4752424435        6.2209967499       -0.0271471351
  H         4.1363045237        5.5614628949        0.9302038928
  C         4.8241001348        7.6227920223        1.4360736084
  C        12.2728970529       -0.4447612037       -2.8411340120
  S         5.4427580992        5.7930578594       21.1443826124
  C         6.0768014766        8.7883188961       21.2473283134
  H        17.2386921189        4.9395984508        7.7143364068
  H        18.2611713067        4.4358024016        6.2202624708
  C        18.9740736112        6.0469402576        7.3207738172
  H         5.7491559878        8.2209399269        1.3035513799
  H         4.6973403344        7.4876434775        2.5098031429
  C         3.5393011994        8.2780961130        0.8846730690
  H        11.9227384897       -1.4269517803       -2.8051955830
  C        12.8847994339       -0.1365388802       -4.0219317479
  H         5.7753850954        8.0811100952       21.9616964700
  H         5.3155308856        9.5061444211       21.1559597691
  C         7.4348090680        9.3444225996       21.7952353268
  H        19.3266362464        5.5321627946        8.2099414163
  H        18.6907346909        6.9899196855        7.6738972705
  C        20.1371363205        6.1218354483        6.3617228682
  H         3.6861019369        8.3657261709       -0.1861106189
  H         2.5835425781        7.7154103161        1.0890232878
  C         3.3643364983        9.7253463974        1.3597902962
  S        13.5172983906        1.3594148764       -4.5050008100
  C        13.0129910113       -1.2402649423       -5.0034013640
  H         8.1223727222        9.4998875183       21.0266573421
  H         7.9537012261        8.5792790602       22.4256142103
  H         7.2875694249       10.2243994012       22.4269321303
  H        20.9591017506        6.6135273330        6.8568310169
  H        20.4126198783        5.1381771211        5.9954917855
  H        19.7312697811        6.6765230181        5.4966920920
  H         3.1616572379        9.8137700728        2.3634795585
  H         4.3269149640       10.2746997583        1.2128424987
  H         2.5875610554       10.2624376894        0.7900885760
  C        13.8619252412        0.5431320835       -5.9734561428
  N        13.6998636503       -0.8088119142       -5.9792909706
  O        12.7880271315       -2.4127069736       -4.6755706598
  S        14.3715213827        1.3534811069       -7.3959105405
  C        14.1363155903       -1.6581565362       -7.0597956862
  H        14.4683063532       -2.6672740986       -6.7455670034
  H        15.0234178970       -1.2487937540       -7.6589743345
  C        12.8353501024       -1.9425519936       -7.9675286664
  H        12.0135715409       -1.6670285723       -7.3595637870
  H        12.6794490836       -2.9178956511       -8.2481610593
  H        12.7146200740       -1.2809086922       -8.8176638092
