352
 i =    60300, time =    30150.000, E =        98.0534479293
  H         9.6723850619        5.2683531310       31.2775884165
  C        10.0289833829        6.2533614461       31.6366086240
  H         9.2158379011        7.0247569573       31.3346539423
  C        11.2839654377        6.6696900347       30.9574250515
  C        10.3243998746        6.1904827045       33.1166569192
  C        11.5168800316        5.8883089814       29.6438279236
  H        11.2825450072        7.7336539752       30.6549989626
  H        12.1538827618        6.6766268215       31.6514955635
  H         9.4184484672        6.0208815332       33.7895196491
  H        10.8896469750        5.2253378753       33.2209162853
  H        10.9257984909        7.0341225733       33.4948294501
  C        10.2926056757        5.5720254682       28.7231583158
  H        11.7334271190        4.9427305099       30.0581962320
  H        12.3571929317        6.2846802109       29.0706966739
  C        10.6930602172        4.9213336641       27.4083776800
  H         9.7218490749        4.7110449477       29.0728411299
  H         9.6211490659        6.4247335651       28.5528307409
  C         9.5732749194        4.5075022049       26.4479922395
  H        11.2873795562        4.0347551959       27.7605576021
  H        11.3711487392        5.6138206690       26.8886830113
  C         8.4231235114        5.5455576741       26.3309848518
  H         9.8844529865        4.4106834584       25.3929440676
  H         9.2772960198        3.4898852979       26.7258688811
  C         7.1919084348        4.8849422558       25.5678941719
  H         8.0299865246        5.8663316021       27.2779426406
  H         8.7104388126        6.4539612458       25.8065068238
  C         6.8564039893        3.5303742154       26.0770458798
  C         7.5752396139        4.2021022941       24.2089389831
  C         5.9310020410        5.7742288468       25.3886585459
  C         7.0903189700        2.4267410356       25.2656621237
  C         6.3492142473        3.1206527612       27.3584338192
  C         7.5045496272        2.8627924519       24.0502374480
  C         8.1136745737        4.8144854353       23.0699336114
  H         6.2382746650        6.5398436043       24.6684277542
  H         5.7416131947        6.4435110747       26.2442478969
  C         4.7318332127        5.0995536355       24.7424397848
  S         6.8309166086        0.8970508056       26.0539018426
  C         6.2950420236        1.7178532160       27.5313312736
  H         6.1885768799        3.8094751665       28.1979666831
  C         7.8843237739        2.2213143442       22.9663670999
  H         8.2294445437        5.9058784622       23.0123671974
  C         8.4211203816        4.1852003846       21.8999637358
  H         5.0000592792        4.9664629152       23.7133977247
  H         4.5078900807        4.1612455408       25.2142131273
  C         3.4989871409        6.0068393180       24.7742884677
  C         5.9255259843        1.0002905210       28.7718126461
  C         8.4051403761        2.8276663288       21.8028360230
  H         7.9319462758        1.0975947898       22.9975108941
  C         8.8854314798        4.6018278333       20.6583865086
  H         2.8443549141        5.5103130549       24.1498912617
  H         3.7792112166        6.9666895863       24.4130465867
  C         2.8204645891        6.0914610220       26.1796620963
  C         5.9053480492       -0.4065498252       28.9043739784
  C         5.3592972967        1.7789985621       29.9441435908
  C         8.8062755849        2.0932833145       20.5355915056
  C         9.0552288312        3.4486357788       19.8710646470
  S         9.0966445841        6.0912961881       19.7948208583
  H         2.0057986949        6.8514421087       26.0300725909
  H         3.5136512504        6.4084260460       27.0377980787
  C         2.1325532148        4.7954394109       26.6115236546
  N         6.0525656668       -1.2133069808       27.8168108452
  C         5.6751220250       -1.0837918468       30.0994904288
  C         5.0906595463        1.1185419971       31.1100253890
  H         5.2720283264        2.8286637716       29.7873818515
  C         7.7325758881        1.2664082164       19.8097057735
  C        10.0866159100        1.2615431003       20.6678580438
  C         9.2552509370        3.8014112333       18.5461642986
  C         9.4074722588        5.1523057363       18.3968206365
  H         1.5067346947        4.5433787957       25.7480697496
  H         2.9065642045        4.0157904505       26.7404455008
  C         1.3446862994        4.7948783520       27.9263011721
  S         6.0592884042       -2.7106684789       28.4075081556
  N         5.6450638777       -2.4492034129       29.9525574112
  C         5.2890841701       -0.3523829261       31.3023456176
  H         4.8141746095        1.7057770956       31.9910457646
  H         7.6646012585        0.2629677159       20.2657637507
  H         8.2308593989        1.0508194819       18.8638913274
  C         6.3755274434        1.9621710693       19.6482930457
  H        10.3325527368        0.6309587217       19.8062554148
  H         9.8325798899        0.5572512178       21.4525608959
  C        11.4128640225        2.0164188492       21.0470608035
  H         9.4364102247        3.0033567562       17.8205921823
  C         9.6347658285        5.9127363047       17.0657979817
  H         0.7212812637        3.9549525840       28.1466649466
  H         0.6874027783        5.7133130163       27.7811739484
  C         2.2293824924        4.9021596953       29.1960964622
  C         5.0910361514       -1.0824376673       32.5084519553
  H         6.3778194582        3.0056239527       20.0051113938
  H         5.6432217021        1.4389075173       20.2936317302
  C         5.9042105478        1.7157032797       18.1399447307
  H        11.2389362922        2.7962199175       21.6932026643
  H        11.7935449530        2.3959605416       20.1238137829
  C        12.4947882289        1.0587863829       21.5036748398
  C         9.8070164093        7.2764105112       16.9338321182
  C         9.7232312394        5.1455332713       15.8069713850
  H         2.9488989030        4.2071407644       29.3090202818
  H         2.8249223725        5.7211342397       28.8680887801
  C         1.4743673612        5.0770869757       30.5075791270
  H         5.0408391872       -2.1206669359       32.3953679879
  C         4.7740415331       -0.6617119709       33.7814603535
  H         6.3211855157        0.8032791364       17.7132789905
  H         6.3256671782        2.5337300811       17.4458745464
  C         4.3551537111        1.8060927661       18.0055734979
  H        12.2192002181        0.8991353875       22.5733014733
  H        12.4777410952        0.1534846279       20.9122461442
  C        13.9606289842        1.6999073690       21.4598789309
  N         9.8155127548        8.2084672165       18.0361874846
  C        10.0675448609        7.8631286698       15.7013531736
  C         9.9835398923        5.7501427925       14.5770708733
  H         9.6397530626        4.0517458290       15.8438266623
  H         0.3938308190        4.8322273226       30.3980835469
  H         1.6690031934        4.3018117136       31.2746693227
  H         1.5369709105        6.1479584194       30.8018601072
  S         4.5433468092        0.9257239867       34.4134826887
  C         4.7424932134       -1.7001742281       34.8663843380
  H         4.0298155050        2.7373013406       18.4367517702
  H         4.2146414872        1.6993778381       16.9030937836
  C         3.7089397265        0.5434633941       18.6291243852
  H        14.0189924450        2.7094453097       21.8226757155
  H        14.2382894390        1.7768230032       20.4149245868
  C        14.9812621617        0.7989482546       22.1567583778
  S         9.8257330911        9.6831782839       17.3355684657
  N        10.0593937834        9.2104533882       15.7835405078
  C        10.2427961960        7.1734179946       14.5067343349
  H        10.0370727436        5.1407124403       13.6766887955
  C         4.4404732070        0.2121370523       36.0384193224
  N         4.6007972422       -1.1038770788       36.0484205892
  O         4.8924175512       -2.9086979815       34.6788613965
  H         2.8085234207        0.7113638867       19.2852534951
  H         4.4061972306       -0.0818939494       19.2996027668
  C         3.3461877596       -0.4545719924       17.5330177412
  H        14.4949264239        0.1297407262       22.8484454548
  H        15.5043572265        0.1508640151       21.4850027580
  C        15.9579766496        1.6429265373       22.9862334394
  C        10.4442437292        7.9338478312       13.2879600788
  S         4.0617522603        1.1297930289       37.5944934275
  C         4.5223471004       -1.8559342503       37.3369464846
  H         2.4246447992       -0.0835723654       16.9790811943
  H         4.1507295574       -0.5441033765       16.7901928764
  C         2.9607559062       -1.8911482816       18.0220963825
  H        16.4559765587        1.0257499362       23.7392346263
  H        15.4392980429        2.4394126791       23.5016672088
  C        17.0030490575        2.3010963205       22.1134913351
  H        10.3583191002        8.9749066111       13.3194342811
  C        10.9393335959        7.4972296829       12.0627374411
  H         4.0491994703       -1.3511721051       38.0795848511
  H         4.0487126157       -2.7817992909       37.0606606917
  C         5.9345884807       -2.2236578854       37.8031048502
  H         3.4187698467       -2.3599466800       18.8654407839
  H         3.1714408406       -2.4530509441       17.0584976452
  C         1.4968905730       -2.0118055610       18.1627063338
  H        16.4953962968        2.4392779446       21.1194364344
  H        17.2859467924        3.2409285795       22.5814789378
  C        18.2842556606        1.5326565704       21.9219498735
  S        11.3412734200        5.9231316719       11.6392942975
  C        11.1348054222        8.5808311887       10.9717596874
  H         5.9234800082       -2.8033035628       38.7384587527
  H         6.3302689242       -2.9426815491       37.1767964952
  H         6.4985057293       -1.3552316258       37.9523781263
  H         1.1718118701       -3.0628520038       18.0607601318
  H         0.9048208473       -1.4675748740       17.4614972194
  H         1.2175787049       -1.8220419512       19.1520249422
  H        19.0641957973        2.1623540333       21.4456542649
  H        17.9796201155        0.5981803459       21.4770775968
  H        18.7710248521        1.2508583629       22.9301088617
  C        11.8030423281        6.6833296497       10.0604718080
  N        11.7258616452        8.0406608206        9.9387859685
  O        10.5975646372        9.6742621100       10.9855598721
  S        12.5080669769        5.7840537148        8.7219039990
  C        12.1728022645        8.8529351175        8.7638260095
  H        12.5908350189        9.8234903911        9.0551335097
  H        12.9928404292        8.3882593659        8.2833647879
  C        11.1084506685        9.1668263744        7.7413257588
  H        10.2638133737        9.7434529976        8.1541970728
  H        11.5126288516        9.7603064267        7.0065444069
  H        10.6045113876        8.3886300533        7.3354198992
  H         4.4386235058        1.2358010845       12.1152413479
  C         3.8038265822        2.0897958982       12.4591000449
  H         4.3901478213        2.9930728524       12.7103919559
  C         2.7429513782        2.3737048462       11.3306917888
  C         3.1095687229        1.7347415200       13.7565494666
  C         3.4119761911        2.5104844136        9.9213455435
  H         2.1482934396        3.2112067240       11.7378307775
  H         2.0089903578        1.5449591624       11.3218024486
  H         2.5871658198        0.8345550806       13.6060385657
  H         2.2588240997        2.4175566830       14.0726335009
  H         3.7522614188        1.5771812328       14.6117795655
  C         4.1706110054        1.3219002924        9.2981222722
  H         2.7252095358        2.7918214198        9.1685266018
  H         3.9976797182        3.4356533733        9.9416691634
  C         4.9915932210        1.5138645423        8.0050484902
  H         3.5188209876        0.4765548219        9.1454311830
  H         4.9044670602        1.0452263660       10.0531129174
  C         6.1442297006        2.4625643336        8.2744587938
  H         4.2574776810        1.9649108703        7.3966872495
  H         5.2909301662        0.5402677070        7.5561497462
  C         7.3616208410        1.8070762534        8.8040294781
  H         6.3923510067        3.0293436726        7.4373003283
  H         5.9058957006        3.2839106682        8.9828942839
  C         8.6082953863        2.6540071831        8.9641483092
  H         7.5587807247        0.9685888965        8.1497167801
  H         7.0934094072        1.2939102861        9.7759443958
  C         8.3024068928        3.9744867352        9.6442369251
  C         9.1385331614        3.3847496632        7.7810909291
  C         9.6851433082        1.8391770579        9.6889002222
  C         8.5949530178        5.1178239222        8.9355509430
  C         7.9058819836        4.2793041645       10.9630400809
  C         9.0632894151        4.7588031074        7.6797346370
  C         9.6528850541        2.7809176008        6.6894947648
  H         9.2226024566        1.3781693787       10.5522414606
  H         9.7970846484        1.0059467782        8.9374053118
  C        10.9401209087        2.5378627380        9.8716518856
  S         8.1879704513        6.5872126668        9.7752012660
  C         7.8135533790        5.6759478843       11.1701238150
  H         7.6007797600        3.4958266042       11.5284817747
  C         9.4076070017        5.4606337483        6.5748794827
  H         9.5711052438        1.6922115344        6.7311015488
  C        10.0507722524        3.4338854600        5.5418948157
  H        10.8284401653        3.5555818924       10.1678771739
  H        11.5307631620        2.5553741653        8.9600489728
  C        11.7736768816        1.8609714494       10.9195443428
  C         7.4464986108        6.3160176185       12.4432482289
  C         9.9518458782        4.7868994418        5.4363971279
  H         9.3880776201        6.5386535056        6.5890502806
  C        10.5862199998        3.0191872323        4.3690997485
  H        12.8111766288        2.0654350659       11.0432722650
  H        11.8737445060        0.8067436047       10.6390633661
  C        11.1058270022        1.8633100918       12.3591378626
  C         7.3260195308        7.6877901648       12.7180584016
  C         7.0367270397        5.4784671147       13.5999310610
  C        10.5168210870        5.4690417912        4.1812419085
  C        10.8260921372        4.1042344283        3.5231868820
  S        10.7754758406        1.4719121592        3.6028431759
  H        10.7678245428        2.8064647192       12.4963716831
  H        10.1222520577        1.3454626622       12.5012812815
  C        12.1098731500        1.5054617256       13.5154469012
  N         7.6060929272        8.6156539825       11.7929824211
  C         6.9382882255        8.2364832975       13.9339282394
  C         6.6472886630        5.9875707336       14.8014191375
  H         7.0461125446        4.4064022540       13.5567954773
  C        11.8076829114        6.3394803337        4.4330169952
  C         9.3905204109        6.2711160473        3.4326078966
  C        11.4602804601        3.7189752399        2.3325835864
  C        11.3424574648        2.3393900065        2.2166808259
  H        13.1106995285        1.9552671751       13.4352999614
  H        12.3480740870        0.4373107666       13.6464131386
  C        11.6544427240        1.8996741672       14.9560950780
  S         7.6763574726       10.0636268121       12.5551124905
  N         7.0601784698        9.5986003111       13.9311461303
  C         6.6713916439        7.4595264083       15.0797374976
  H         6.3642640231        5.3060701139       15.5710505312
  H        11.5090791096        7.2251920668        5.0177646695
  H        12.3115369794        6.6944878478        3.5608250161
  C        12.9483206357        5.4620970940        4.9856753067
  H         8.9847948099        7.0241497023        4.1352479137
  H         9.9035592921        6.7815114764        2.5892192906
  C         8.3291598198        5.5167332290        2.7345513984
  H        11.7312576266        4.5250926121        1.6136466857
  C        11.5334906511        1.6703466294        0.8662279597
  H        11.2088265890        2.9008488366       14.9004752805
  H        10.7698461225        1.2484742546       15.1414516553
  C        12.6286218430        1.8109207133       16.1115047177
  C         6.3929031630        8.1721991548       16.3000392868
  H        12.5371155805        4.8831505278        5.8706265945
  H        13.3373951406        4.8550130510        4.1852698345
  C        14.1825589117        6.2239115469        5.4556837227
  H         7.8429409678        4.9262692105        3.4694721710
  H         8.8489431502        4.9368981007        1.9500930416
  C         7.3947644642        6.5412434795        2.1204034020
  C        11.6118513279        0.2921943132        0.6385840209
  C        11.6282803607        2.4050857563       -0.3916454097
  H        13.4743175036        2.5280020317       16.0235283034
  H        13.1191262444        0.8569740353       16.0659452788
  C        12.0279592521        1.7578549323       17.5115647277
  H         6.7332731950        9.1975918103       16.3242083964
  C         6.0929972265        7.7111208738       17.5517671714
  H        13.9201161196        6.8846084049        6.2705549947
  H        14.5338616879        6.8429398011        4.6433914508
  C        15.2844117675        5.1779202543        5.8705939268
  H         7.0530246801        7.3459102611        2.7206159745
  H         7.9603820907        7.0289184303        1.3409093617
  C         6.1453506850        5.9223069230        1.5618288905
  N        11.3727028534       -0.6861032393        1.6326128795
  C        12.0072955509       -0.2571676616       -0.5530432292
  C        12.0188231659        1.8585647003       -1.5914799137
  H        11.5140726188        3.5003924410       -0.3311026146
  H        11.6591067702        2.6543136700       18.0321078441
  H        12.9149137936        1.4445998223       18.0861810901
  H        11.2097371444        0.9719325517       17.6314257368
  S         5.8040900556        6.0787166491       17.9713187964
  C         6.0495153090        8.6674693295       18.7360796773
  H        14.7891784498        4.3578742548        6.4447172326
  H        15.6161113869        4.7736712151        4.9774788789
  C        16.4427333382        5.9027256790        6.4585417999
  H         5.6298441496        5.2059698745        2.1920141825
  H         6.4015060823        5.1956185225        0.7685140969
  C         5.1564668826        6.9739669448        1.0448824592
  S        11.6166543101       -2.1314428076        0.9663229906
  N        11.9206940603       -1.6483532990       -0.5537942392
  C        12.3407136356        0.4574632750       -1.7215620986
  H        12.0664777624        2.4810545338       -2.4589662364
  C         5.7972550993        6.6238323975       19.6115286008
  N         5.8637603618        7.9591540456       19.8555992916
  O         6.2226140848        9.9163506259       18.5814661427
  H        16.8390750563        6.5917326411        5.6706360669
  H        16.1259395570        6.5128355313        7.2834882774
  C        17.6218306904        4.9850871783        6.8298386451
  H         5.5942247136        7.6698450977        0.2818025505
  H         4.3973181824        6.4646669277        0.4231634926
  C         4.4704035577        7.8864405513        2.0541298220
  C        12.7416049399       -0.2526050338       -2.9052040148
  S         5.2874464781        5.6550575217       20.9810423148
  C         5.7653245678        8.6706484768       21.1276632539
  H        17.4015205840        4.3683759453        7.7481953242
  H        17.7196310443        4.1680178188        6.0758765125
  C        18.8237405106        5.8710148350        7.0089132003
  H         4.8507275778        7.6650998817        3.0667475512
  H         3.4321982282        7.6164756449        2.1098755887
  C         4.6344504291        9.3978103069        1.6279961860
  H        12.4797448929       -1.3194215308       -2.8159936951
  C        13.2943424818        0.1311294735       -4.1008278772
  H         5.0481910368        8.3174974503       21.8220443898
  H         5.4846691260        9.6956037087       20.8551870989
  C         7.1751011676        8.5605053742       21.7149618313
  H        19.3433901143        5.4992465572        7.8311594371
  H        18.6231863545        6.8965973782        7.2936352292
  C        19.6688387097        5.7219322927        5.7247322943
  H         4.8163070387       10.0154937649        2.4542563536
  H         5.5756480722        9.4379195357        1.1093472076
  C         3.4415498077        9.7992023830        0.6763370845
  S        13.8322835063        1.6525850916       -4.6155403635
  C        13.3771377897       -0.8922249877       -5.1253290479
  H         7.4114246459        7.6735417690       22.3749883263
  H         7.3065387325        9.4021203578       22.2959452563
  H         7.9944417130        8.4640107955       20.9939400710
  H        20.5915981508        6.1309502751        5.9010931310
  H        19.8300799239        4.6364881349        5.5702151989
  H        19.2184217497        6.1195542522        4.8732389671
  H         2.5494538035       10.1776990775        1.1547106050
  H         3.7094579176       10.6209907592       -0.0016773242
  H         3.1617209281        8.9581154301        0.0188058411
  C        14.2180715144        0.9481514802       -6.1574501280
  N        13.9262717627       -0.3461142731       -6.2254830464
  O        13.1529098122       -2.1306732809       -4.9262297816
  S        14.7432848940        1.7840095248       -7.6140433458
  C        13.9830387191       -1.1023935857       -7.4379484717
  H        14.2398739565       -2.1603691018       -7.2943831448
  H        14.8275562987       -0.7938457579       -8.0724691320
  C        12.6096988845       -0.9078520715       -8.2511994702
  H        12.2592697423        0.0963501693       -8.4003163201
  H        11.7853289985       -1.4036172206       -7.7629635490
  H        12.6912208354       -1.2426036917       -9.3026787371
