352
 i =    66900, time =    33450.000, E =       100.7016652215
  H        12.4259615159        6.1189425983       31.7912580094
  C        11.3858445640        5.9106877112       32.0591650157
  H        11.3833957705        4.8486422662       32.2033372167
  C        10.2794509564        6.1850660855       31.0704000677
  C        11.0907302837        6.5828919091       33.3803229371
  C        10.8812781572        6.0752002983       29.6046000466
  H         9.4865300635        5.4844733644       31.3176569089
  H         9.8450081256        7.1651889093       31.4080834398
  H        10.9057242425        7.6359887350       33.2576524465
  H        10.2895345298        6.1405368296       33.9545621869
  H        11.9415726389        6.6003583497       34.0505349969
  C         9.8491279203        5.5525781861       28.6585298217
  H        11.7276692163        5.4096306150       29.5922605928
  H        11.2341088417        7.0324829027       29.2420424425
  C        10.5513079641        5.5788011701       27.3371407819
  H         9.4294464756        4.5059284183       28.8794945778
  H         9.0065092373        6.2279503792       28.5890949956
  C         9.6691944917        4.9215121699       26.2347711077
  H        11.4027967355        4.9035248414       27.4367060542
  H        10.8605970002        6.5730604379       27.0633464451
  C         8.5492626711        5.9143491228       25.7912949207
  H        10.3062680106        4.6768720056       25.4125596691
  H         9.2999808093        3.9990827397       26.6655462793
  C         7.3841761002        5.3112992993       24.9521011325
  H         8.0676238820        6.3477960627       26.6702718112
  H         9.0324879192        6.7848885783       25.4408195451
  C         6.9588055491        4.0324043932       25.6797247334
  C         7.8861760122        4.5857282638       23.7876137124
  C         6.1859412270        6.3581907418       24.7413347163
  C         7.0986512198        2.9452463349       24.8980929860
  C         6.5253430956        3.8359513121       26.9731146719
  C         7.6540007071        3.2630191525       23.6768965674
  C         8.3259060058        5.2275098076       22.6142180210
  H         6.6275308206        7.0927663762       23.9706368995
  H         6.0503621505        6.8039068026       25.6857780962
  C         4.8686005565        5.6507357994       24.3770681997
  S         6.5766478745        1.5368401286       25.6877938537
  C         6.1957636136        2.5020932951       27.1234610452
  H         6.6092217916        4.6193723200       27.7014501042
  C         8.1074211626        2.5885292005       22.5725480436
  H         8.4513951761        6.2843479219       22.6675796878
  C         8.5926843405        4.5571466385       21.4601191402
  H         4.9351087386        5.3641752662       23.3017145976
  H         4.6246680909        4.7878473490       24.9319812891
  C         3.6200029218        6.4787251642       24.4614519928
  C         5.8825491467        1.8435971784       28.4814018690
  C         8.4589092778        3.2535994086       21.3631829414
  H         8.0515331415        1.5332928615       22.5720938795
  C         8.9827421219        4.9334397571       20.1740878088
  H         2.7988878462        5.9031733234       24.0095305754
  H         3.8262314943        7.4887892308       23.9700998047
  C         3.1640214806        6.5839267746       25.8927486908
  C         6.0779682174        0.4401807340       28.7677647924
  C         5.4426362892        2.6497566292       29.6205757988
  C         8.7982482751        2.5756797531       20.1053563099
  C         9.0724740794        3.8531370823       19.2988939648
  S         9.3009123929        6.3804567353       19.4565555967
  H         2.7157576566        7.5118629906       26.0938203868
  H         4.0837941679        6.7816337152       26.5147793649
  C         2.4306715862        5.3969891430       26.4456461979
  N         6.5439598380       -0.5733781558       27.8688512601
  C         5.9442458754       -0.0935197866       30.0469860419
  C         5.2378872651        2.0591912163       30.8529446966
  H         5.1768183048        3.6694590349       29.5336982872
  C         7.5746665990        1.7001638974       19.6530226497
  C        10.0878168494        1.7433087848       20.2971710355
  C         9.4745737288        4.2156613348       18.0303994797
  C         9.6838253519        5.5984948432       17.9491299280
  H         1.6893972231        5.1156552094       25.6758527035
  H         3.0583894744        4.5171582510       26.5357034272
  C         1.6075347514        5.6114635961       27.6155480503
  S         6.5134048557       -1.9933900441       28.6916426818
  N         6.2248641003       -1.4654696094       30.1727980748
  C         5.5148961886        0.6332751289       31.1863611790
  H         4.8218855583        2.6303152547       31.6240114110
  H         7.2393112738        0.9928691852       20.4299999343
  H         7.8420585777        1.0051340840       18.8521893270
  C         6.2584649180        2.3438650058       19.0916501663
  H        10.3753261838        1.3842560472       19.3464328093
  H         9.8411850460        0.8507671724       20.8199085487
  C        11.2607720694        2.4935528449       20.9117803769
  H         9.4732036031        3.4540081418       17.2065761964
  C        10.1874645931        6.2948343109       16.7269174950
  H         1.0013603380        4.7421741042       27.8112307556
  H         0.9581347995        6.4446240881       27.6271661545
  C         2.5862849426        5.7706509589       28.7925144276
  C         5.1787452669       -0.0154940970       32.4270321261
  H         6.3590395339        2.9241795432       18.1703647089
  H         6.0559017616        3.0784246040       19.8828706140
  C         5.0441529590        1.4923007397       18.9182084840
  H        11.0327979937        2.9043558362       21.8491661735
  H        11.5103684929        3.3800456987       20.2448927490
  C        12.5903519696        1.6459888799       20.9672114673
  C        10.2395903469        7.7325984030       16.6144990060
  C        10.4256942723        5.5512574678       15.4953170323
  H         3.1487805117        4.8904027221       29.0950501119
  H         3.2256990856        6.5450597008       28.5398774337
  C         1.8110464570        6.0564599329       30.0654380687
  H         5.1199827371       -1.0826921123       32.3416255338
  C         4.8812284307        0.4290255646       33.7288243577
  H         4.3701535114        1.5160193311       19.7860298960
  H         5.2888694062        0.4606816331       18.8531170828
  C         4.2158604131        1.8908306269       17.7148022471
  H        12.4282166242        0.8524227098       21.7309586272
  H        12.5879923900        1.1032692433       19.9823422692
  C        13.9096270959        2.3781289103       21.1225467474
  N         9.9805068648        8.6017057376       17.6361659228
  C        10.5042569101        8.4400417327       15.4702488278
  C        10.6423021366        6.2159430807       14.3332869820
  H        10.3337174801        4.4728497370       15.5355203645
  H         1.1852566732        5.2354469494       30.2268123182
  H         2.3925646341        6.2633893029       31.0424888343
  H         1.1494798452        6.8786972322       30.0244466521
  S         4.6344071553        2.0603134673       34.1720721547
  C         4.7200231308       -0.6067541974       34.7703185125
  H         3.8601251989        2.9306980983       18.0215959189
  H         4.8603082269        1.9359448775       16.8590874640
  C         2.9010435170        1.1720500005       17.3782847816
  H        13.7762742473        3.4696492985       21.0333005609
  H        14.6238114961        2.0476555507       20.3617951197
  C        14.4995205525        2.2771322449       22.5844501549
  S         9.7905655003       10.1159736425       17.0533847676
  N        10.2664675294        9.7956343940       15.5578785296
  C        10.6429047074        7.7138877580       14.2366326481
  H        10.8360239780        5.6634430911       13.4318061548
  C         4.3322168993        1.3761282528       35.8098898650
  N         4.4082255480        0.0121646837       35.9508264548
  O         4.8646433014       -1.7914211352       34.6025646235
  H         2.2481070942        1.9596415115       17.0426314872
  H         2.4808571446        0.9359197895       18.3557940140
  C         2.9999035785       -0.0581326151       16.4520091692
  H        13.6650161931        2.1966368503       23.3212458958
  H        15.0595467900        1.3449251959       22.7478039686
  C        15.2666316477        3.6096602398       22.8401500131
  C        11.0123538214        8.4875938062       13.0798022910
  S         3.7844741342        2.3809373113       37.1749598465
  C         4.4349860164       -0.8165403785       37.1705663173
  H         2.2014770709       -0.1665407817       15.7828807488
  H         3.8753627246        0.1318325684       15.8211332073
  C         3.2302448096       -1.4604521036       17.0908582191
  H        15.6058469166        3.5836227175       23.8767939216
  H        14.5888992213        4.4016837144       22.6999155631
  C        16.5520899343        3.7577732456       22.0271613195
  H        10.8185367332        9.5541158083       13.0210552133
  C        11.3606465043        8.0850647355       11.8398593566
  H         3.7331854645       -0.4929154538       37.9588599845
  H         4.1164207480       -1.8234651013       36.9874877617
  C         5.9154605495       -0.9495804280       37.6671664946
  H         4.0969275860       -1.4862480563       17.6865119304
  H         3.5991660095       -2.1539035042       16.3020878502
  C         1.8873095568       -1.9213220925       17.7409471960
  H        16.4943790787        3.6578728314       20.9864426314
  H        16.9229192262        4.7805205916       22.1150467649
  C        17.5957329792        2.7316175725       22.5510626104
  S        11.8349700548        6.4972724892       11.3337999179
  C        11.5513745226        9.1713348742       10.7811326048
  H         6.4928979600       -0.0027120080       37.7518579423
  H         5.8746713039       -1.3342960307       38.7437344147
  H         6.4626278629       -1.7036323115       37.0782215284
  H         2.0633104269       -2.6714839890       18.4785571100
  H         1.1751516783       -2.3424663135       17.0522208516
  H         1.2898747441       -1.1533955627       18.2370341849
  H        17.1608668441        1.7318245619       22.4194160868
  H        17.8149448820        2.8437870707       23.5950316010
  H        18.4720005286        2.8918030605       22.0049568720
  C        12.5153603923        7.2533598611        9.8744120962
  N        12.2373388057        8.5854395225        9.7554849694
  O        11.2001940007       10.3581066962       10.9397427475
  S        13.2951181326        6.3312823468        8.6110314608
  C        12.4187254305        9.3293219287        8.6134970268
  H        12.8060070981       10.2530274759        8.9493029528
  H        13.2233897865        8.9669431804        7.8982223359
  C        11.1367606458        9.4691510428        7.7963509157
  H        10.9853876825        8.5506735673        7.2469392044
  H        10.3055285803        9.6530080252        8.4351152963
  H        11.2499514135       10.3896843946        7.1401397491
  H         4.5463097908        1.5762446539       12.4244907899
  C         4.0062481062        2.5195540400       12.5123476135
  H         4.7636500518        3.3145699024       12.5611704942
  C         3.2742469263        2.5674313172       11.1687232584
  C         3.0043500484        2.6662796795       13.6339832626
  C         4.1909290425        2.9311798403        9.9694490935
  H         2.5036646000        3.3646203855       11.1972540571
  H         2.6187343496        1.6744397653       11.0286170178
  H         2.1290716112        2.0294194530       13.5761863148
  H         2.6802114546        3.6579836384       13.6807624659
  H         3.5308892541        2.6287908619       14.5909441858
  C         4.5539184031        1.6950469021        9.3022519740
  H         3.8690982753        3.5864795342        9.2882209858
  H         5.0675196972        3.2974664616       10.3940329455
  C         5.4408327957        1.8456779387        7.9962774675
  H         3.7064619899        1.1007252621        8.9920811925
  H         5.1701399571        1.2123029825       10.0339749080
  C         6.7481842537        2.6629562244        8.1043260493
  H         4.8639518948        2.2769005006        7.1920147964
  H         5.5829614877        0.8558218892        7.5374026203
  C         7.8969255439        1.9037175360        8.7988220329
  H         7.1500681902        2.9163547653        7.1088743903
  H         6.5432731832        3.6383133808        8.5268300754
  C         9.1200027309        2.8838082225        8.8639242297
  H         8.2766559001        1.0923222243        8.1509240162
  H         7.5489291373        1.4141040378        9.7477926697
  C         8.7668379868        4.1930736973        9.4870105739
  C         9.6029206359        3.5854631091        7.5603471230
  C        10.2531955930        2.1313220135        9.6120015066
  C         8.9232788810        5.3121528592        8.6666438635
  C         8.2997908644        4.5616311419       10.7239840703
  C         9.4661768700        4.9513343120        7.4840179918
  C        10.1441915559        3.0377410717        6.3753673083
  H         9.7307632437        1.7891298384       10.5275840383
  H        10.6225973271        1.2500974385        8.9939219225
  C        11.3815728352        3.0243874444       10.0769564846
  S         8.5535073573        6.7786119382        9.3397751660
  C         8.0619975067        5.8882310326       10.8009192533
  H         8.0713472870        3.7466690558       11.3930117059
  C         9.8925403255        5.6216295033        6.3949788210
  H        10.1168719181        1.9387405150        6.2006568665
  C        10.4084778489        3.7377200714        5.2386558859
  H        11.1124472442        3.8754949484       10.5976552548
  H        11.7870145546        3.3874498867        9.1485034248
  C        12.4611167479        2.3891126324       10.9378271774
  C         7.5959436932        6.5039960757       12.0706353906
  C        10.3678083356        5.0433780457        5.1984161379
  H         9.8612731023        6.7203475075        6.3108122446
  C        10.7368536408        3.3905235509        3.9423502302
  H        13.3735916565        2.9879895040       10.8752181766
  H        12.7544473929        1.6343155091       10.3188723591
  C        12.0515499086        1.9547202695       12.3492058824
  C         7.6790555258        7.9085913357       12.3975216512
  C         7.2584320933        5.6367712153       13.2100440456
  C        10.7000750152        5.7799863679        3.9133615484
  C        10.9411771413        4.4525480454        3.1238656581
  S        10.8722219094        1.8185504945        3.1524777696
  H        11.2634784574        2.4993645888       12.8030357330
  H        11.7515496071        0.8979863604       12.4437920686
  C        13.1991760065        2.1319461835       13.3754273727
  N         8.0534871802        8.8397903735       11.4637072253
  C         7.4765111315        8.4136562331       13.6602673473
  C         7.0586895421        6.1390645298       14.4898181780
  H         7.0719603064        4.6086275081       13.0438419437
  C        12.0241697306        6.6019254100        4.1198058437
  C         9.5710020503        6.5141614120        3.1634915815
  C        11.2044736269        4.1118716522        1.7965710300
  C        11.2884414920        2.7019382911        1.7098921975
  H        13.4991564063        3.1579615538       13.4685707689
  H        14.0918036392        1.6353702513       12.9555088864
  C        12.8794843386        1.6211044129       14.7521570706
  S         7.8788738118       10.3185393227       12.1660841282
  N         7.6483590885        9.8074855011       13.6961922987
  C         7.1752781989        7.5733269437       14.7970166153
  H         6.6947318052        5.5432034574       15.2714332396
  H        11.8960547766        7.5441727968        4.6362114583
  H        12.4770272142        6.8044152858        3.1427676689
  C        13.1496488068        5.8327011386        4.8106975010
  H         9.4186904635        7.3658815244        3.8309220681
  H        10.0447730093        6.8825790445        2.2698324000
  C         8.3198050830        5.6777927624        2.7602567380
  H        11.4769764467        4.8884190481        1.1036522255
  C        11.6501734485        1.8928073921        0.4588852111
  H        11.9817216875        1.0739820690       14.7258731153
  H        13.5213517523        0.8251697197       14.9929548820
  C        12.9530433405        2.7979131775       15.7797692801
  C         6.8189002200        8.2357101696       15.9802149749
  H        12.7920416861        5.3301199350        5.7002349181
  H        13.5612336306        4.9675740595        4.1535305538
  C        14.3332190213        6.6674825719        5.2206196035
  H         7.9848834789        5.1348720489        3.6327857434
  H         8.5995832450        4.9149713890        2.0026232577
  C         7.1446241787        6.5532970346        2.2635557646
  C        11.7723070663        0.4731774024        0.3426151479
  C        11.9287864694        2.6255881793       -0.7747712181
  H        12.2823513648        3.5210816684       15.3798918280
  H        13.9462843304        3.2849910905       15.8448112899
  C        12.3532912795        2.3911363126       17.1537385848
  H         7.0668492357        9.2597072908       15.9139360137
  C         6.5438370196        7.8228204887       17.2686545304
  H        14.1592191126        7.0016798650        6.2573897758
  H        14.3388399447        7.5599229529        4.6150777577
  C        15.6524799469        5.8605130468        5.1122265946
  H         6.8958958880        7.3280306021        3.0381447605
  H         7.5225233686        7.1177065958        1.4700375026
  C         6.0231419887        5.8740164003        1.5306459575
  N        11.6572386885       -0.4470407976        1.4116624246
  C        12.0676325044       -0.1226132687       -0.8489037537
  C        12.2818031255        2.0181129475       -1.9606876020
  H        12.0135341844        3.6236922284       -0.8153009887
  H        12.1504710666        3.2878616950       17.7375073705
  H        13.0183599194        1.7283418405       17.7401549293
  H        11.3733111965        1.8367396961       17.0552299045
  S         6.2761634356        6.2107925939       17.7696090993
  C         6.5435058039        8.8666224912       18.3291407669
  H        15.6491379247        4.8589056708        5.2870715483
  H        16.1463232243        6.0245532794        4.1404587009
  C        16.7535377146        6.3699873382        6.0892637594
  H         5.5648376623        5.2387175116        2.2819647767
  H         6.5132662416        5.2383776391        0.7757489247
  C         4.9721980130        6.9628893407        1.0724014900
  S        11.6335133464       -1.9239108538        0.7491856160
  N        12.0319517575       -1.5594568454       -0.7684662949
  C        12.3399152806        0.5640042467       -2.0519489809
  H        12.4592803407        2.6231001779       -2.7992500551
  C         5.9478568008        6.9727027484       19.3536710628
  N         6.1630841898        8.2973681797       19.4905673964
  O         6.8664419309       10.0315824516       18.0860630921
  H        17.2964643753        7.0383440877        5.4553160166
  H        16.2897727683        7.0293592590        6.8315311549
  C        17.7528997719        5.3911399530        6.4664959100
  H         5.5789462288        7.8055825131        0.6985115266
  H         4.4847845375        6.5286633619        0.2405883749
  C         4.0379769002        7.3626803188        2.2220629454
  C        12.8605722320       -0.1973778737       -3.1284706117
  S         5.5605480466        6.1406933045       20.8502615430
  C         6.1566720041        9.0293098349       20.7905071650
  H        17.1885706546        4.5017914330        6.8188030802
  H        18.2687180086        5.1295644838        5.6200905982
  C        18.7972661289        5.8753773073        7.3900961796
  H         4.5538790083        7.5377811386        3.1949844627
  H         3.4563650422        6.4105092669        2.4430204554
  C         3.2181386209        8.5457241783        1.8476748224
  H        12.9171768489       -1.2140176824       -2.9519812674
  C        13.2820456634        0.1551773544       -4.3544471315
  H         5.3945026875        8.6592249701       21.4427130896
  H         5.8937302974       10.0800010257       20.6024298545
  C         7.4926573021        9.0471385539       21.5132439602
  H        18.9681330250        5.2386514028        8.2003255955
  H        18.4673117931        6.8072829879        7.9420187458
  C        20.0869321989        6.0896549355        6.6413192627
  H         2.8168643529        8.3522387677        0.8653503352
  H         2.3390405044        8.6279919562        2.5449034475
  C         4.0227175800        9.8881948901        1.8323789249
  S        13.7029089537        1.7795712585       -4.8603673274
  C        13.4780763922       -0.9287142505       -5.3949704396
  H         8.1659499832        9.7809086620       21.1230233912
  H         7.8858672825        8.0451576245       21.4050774848
  H         7.2787088710        9.3144491369       22.5515656059
  H        20.4823697092        5.1192171973        6.3529656270
  H        19.9107466301        6.6760722842        5.7691472826
  H        20.7872604295        6.5175343769        7.3717136822
  H         4.8152968195        9.9212337039        2.5539182492
  H         4.5278895396       10.1167258615        0.8972464178
  H         3.3042207096       10.6576677741        2.1841254361
  C        14.0508770756        0.9895947281       -6.4794294340
  N        14.0090552127       -0.3420825765       -6.4579419357
  O        13.2504352821       -2.1106294008       -5.2314202268
  S        14.5564435184        1.8913065200       -7.9744882961
  C        14.1600061402       -1.1783518168       -7.6910719955
  H        14.2403736941       -2.2475401683       -7.4018712726
  H        15.0663515486       -0.8731023579       -8.2126125985
  C        12.8670532549       -1.0974388610       -8.5065633330
  H        12.0786172459       -0.7830543786       -7.8957246645
  H        12.7152182470       -2.0486211644       -8.9329244197
  H        13.0220567868       -0.4541690383       -9.4051574789
