352
 i =    79100, time =    79100.000, E =        25.1487975775
  H        10.6596673653        7.7939953896       30.9945662837
  C        11.4283094347        7.1743089656       31.4202403620
  H        12.0472273773        7.9941466288       31.6676270324
  C        12.1246375295        6.1212622278       30.5025557613
  C        10.9519023104        6.4647060917       32.6941766344
  C        11.2200840202        5.3043401520       29.5911321643
  H        12.8062929317        6.5111666357       29.7788132315
  H        12.7009012311        5.4778759435       31.1203684333
  H        11.8089416918        6.1012835878       33.2871407097
  H        10.5436417835        7.2060926190       33.3223962248
  H        10.1769322009        5.7190521364       32.5142594657
  C        10.3665390407        6.1609881508       28.6184226213
  H        10.5843398139        4.6973052734       30.2602591893
  H        11.7606254506        4.5546076178       28.9681742805
  C        10.6608760076        5.9919327772       27.1354612745
  H         9.2832665355        5.9749252112       28.7654483379
  H        10.4674330103        7.2241536525       28.8344585950
  C         9.6463342649        5.1222985889       26.3761203779
  H        11.6477265727        5.7827800978       26.9932825940
  H        10.5470677679        6.9035645830       26.6190530631
  C         8.4822461541        5.9913252490       25.8701165341
  H        10.1193391122        4.5307583316       25.5783046571
  H         9.2665757836        4.3812673452       27.0584742648
  C         7.3442861680        5.0917963896       25.3060206012
  H         8.0480259842        6.4576923193       26.7032545668
  H         8.8303826588        6.7629541258       25.1804970826
  C         7.0120627565        3.7722099404       26.0739726927
  C         7.6750961701        4.2961259478       24.1269410430
  C         6.0231440133        5.7894331326       24.9079946642
  C         7.2126693177        2.6202773864       25.3026746614
  C         6.6018156408        3.4153191276       27.4044828631
  C         7.6895150241        2.9951239748       24.0754882416
  C         8.1437625836        4.9660610412       23.0069288609
  H         5.5064169693        5.1445715717       24.2610676221
  H         6.2360259116        6.7207127688       24.3990471820
  C         5.0714311181        6.3271681548       25.9696257791
  S         6.8400552117        1.1625151584       26.1659903327
  C         6.4825008849        2.1180202575       27.6083613347
  H         6.4899297177        4.1657296449       28.1552730246
  C         8.0674325298        2.3076580801       22.9367097790
  H         8.1293015383        6.0955835439       23.0499221595
  C         8.5509606349        4.3761621966       21.8704765738
  H         4.9489788209        5.6746768383       26.8004123439
  H         5.3969006114        7.2724608748       26.3803662076
  C         3.6562667528        6.6018236596       25.3794446677
  C         6.1012849783        1.4684317723       28.9946270966
  C         8.4844635537        2.9823005634       21.7872254679
  H         7.8983362643        1.2081429000       22.9927504718
  C         8.8606163093        4.8288695688       20.6285924016
  H         3.2733635107        5.7125037813       24.8721143327
  H         3.7349974570        7.4030858723       24.6566877275
  C         2.4801329961        6.7994513499       26.3580344772
  C         6.1096785314        0.0680498241       29.2132014443
  C         5.6277405295        2.3035387411       30.1640451122
  C         8.8313257688        2.3049640167       20.4883774646
  C         9.1375891975        3.7081836871       19.8761412075
  S         9.0265866075        6.3398776664       19.8352291865
  H         1.6112111138        7.1307928197       25.7970027801
  H         2.6634942686        7.6814699210       26.9600095412
  C         2.2163271275        5.5890698866       27.2835039228
  N         6.5522106538       -0.8832826710       28.2719725691
  C         5.8752170881       -0.4919047910       30.4715433218
  C         5.4288632619        1.6567398219       31.4355955563
  H         5.4042794249        3.3453260207       30.0206535798
  C         7.4606420025        1.6599319946       19.9291849049
  C        10.0630625564        1.3442253794       20.5341363777
  C         9.5707006977        4.1241722660       18.6258897974
  C         9.5235522353        5.4574513732       18.3978347900
  H         2.3725617838        4.6119384833       26.8098782556
  H         2.8781147277        5.7378666185       28.1440403771
  C         0.7572305882        5.6889153568       27.8440850157
  S         6.4089949740       -2.3442085517       29.0285215233
  N         6.0673640798       -1.8730832498       30.5400820628
  C         5.5862007471        0.2230698650       31.6246321834
  H         5.2218434752        2.3347140907       32.1966742311
  H         7.2640719648        0.7086732048       20.3649598540
  H         7.6482068348        1.3850749897       18.9188119487
  C         6.2651675895        2.6824389328       19.8463944220
  H        10.1477769756        0.7892598144       19.5796098281
  H         9.7240993238        0.5408810501       21.1528016839
  C        11.3481480010        1.9715598712       21.0223672896
  H         9.8507696036        3.3739584767       17.8979507243
  C         9.8663001863        6.1688159341       17.0939077124
  H         0.0569885700        5.3842961928       27.0552427222
  H         0.5761784282        6.7155929884       28.0564763882
  C         0.4039859267        4.7360197307       29.0148238126
  C         5.4162207339       -0.4436268937       32.8903817477
  H         6.5143749521        3.6580285793       19.4057619050
  H         6.0053821426        2.9921545211       20.8364326922
  C         5.0026103087        2.2023335506       19.1891602866
  H        11.1949795417        2.6526147269       21.8847431863
  H        11.7098374360        2.7847308362       20.3399901766
  C        12.5189182233        1.0248570227       21.4682348200
  C         9.9748237848        7.5078094379       17.0387414795
  C        10.2581364800        5.4324868960       15.8725927442
  H        -0.6978855858        4.7806683488       29.2712485893
  H         0.6739946492        3.7338701481       28.6487061056
  C         1.1467761466        5.2409497782       30.3549942120
  H         5.4325302945       -1.4843546593       32.8363967741
  C         5.1113098985        0.0817148743       34.1634161594
  H         4.2180360098        2.9630126135       19.0741658252
  H         4.5064442738        1.5186576933       19.9300934563
  C         5.0588110888        1.3027630325       17.8784211241
  H        12.0960531099        0.4968427580       22.3085296140
  H        12.8350843367        0.3398093189       20.6191117305
  C        13.6919007191        1.9221334568       21.8144501942
  N         9.7262703309        8.4952448147       18.0249203332
  C        10.3432631889        8.1341461702       15.8403563560
  C        10.6879510580        5.9832973988       14.7497218171
  H        10.1136197076        4.3755530381       15.8581919692
  H         0.8296929781        6.2725186319       30.5280899752
  H         0.7518126358        4.7019436070       31.1843057467
  H         2.2501670388        5.3423710009       30.3421052029
  S         4.8649349671        1.7025896615       34.6565559563
  C         5.0292274882       -0.8911741230       35.3038127529
  H         5.4334020657        1.9953100500       17.1644058388
  H         5.7816874709        0.5107306348       17.8870839855
  C         3.6732044920        0.8759437146       17.3132653529
  H        13.3628839843        2.9154208449       22.2262844300
  H        14.1976183470        2.1256889444       20.8548245751
  C        14.6353789909        1.2651143592       22.8702479383
  S         9.8364831598       10.0136408359       17.3949622791
  N        10.2854744834        9.5255120486       15.9307113751
  C        10.7439046793        7.4733983170       14.6375873592
  H        10.9772663789        5.3536304025       13.9180799691
  C         4.6024451979        1.0367703128       36.2909726302
  N         4.6426564955       -0.2961355128       36.4256703389
  O         5.2478876703       -2.0736373883       35.2044966238
  H         3.7936752245        0.5245972641       16.2766441627
  H         3.0886194629        1.8125060179       17.1830682626
  C         2.9315923382       -0.1297775145       18.2301157908
  H        13.9587910036        0.9829048987       23.6875101505
  H        15.1527930852        0.3144407863       22.6133849450
  C        15.6425995043        2.2752664585       23.3500830952
  C        11.0063918233        8.2253233243       13.4628383336
  S         4.2783768501        2.0305118243       37.7533658402
  C         4.6284163803       -1.0425914163       37.7106511822
  H         3.5818912217       -0.7906937553       18.7891717586
  H         2.3813147771        0.4144662157       19.0346843673
  C         1.8130840935       -0.8882588753       17.5676339699
  H        15.1722570760        2.9597893257       24.1083908704
  H        15.7577645782        3.0020201579       22.4666262471
  C        16.8052471605        1.5589775095       24.0012351408
  H        10.6530418638        9.2192467905       13.4238652154
  C        11.6151818396        7.9610711799       12.2465435129
  H         3.9018664303       -0.6529777469       38.4621183000
  H         4.2209935273       -2.0612869556       37.5207978453
  C         6.1233474279       -1.1460971485       38.2765563903
  H         0.9370704425       -0.2420991429       17.3774136418
  H         1.4250779474       -1.6292811484       18.2852404085
  C         2.1176401440       -1.5538612719       16.2355276872
  H        17.1447454735        2.1082157497       24.8604317223
  H        16.5271495870        0.5469325804       24.3890272298
  C        18.0777569239        1.4526259183       23.0218657301
  S        12.2646779418        6.4634056943       11.7096152170
  C        11.5093294697        9.0664569650       11.3074353902
  H         6.1865520572       -1.7800166609       39.2146683102
  H         6.6733740237       -1.7140445560       37.5725548405
  H         6.4780498243       -0.1832376510       38.6705247576
  H         1.4154700958       -1.2041905742       15.4213812397
  H         1.8192757781       -2.6279045218       16.3409718039
  H         3.1513379448       -1.6129657090       15.9609351545
  H        18.4853259792        2.3735220706       22.6453278718
  H        17.7449159169        1.0536731330       22.0945887435
  H        18.8654859909        0.9038232970       23.3333845388
  C        12.5966291352        7.4290625187       10.2582460740
  N        12.1792003810        8.7276191109       10.2330231211
  O        11.0835684908       10.2009708648       11.4631097670
  S        12.8271452134        6.7242188720        8.6825661372
  C        12.2478612840        9.6325126213        9.0718603587
  H        12.2326952589       10.6436342626        9.3542467442
  H        13.1540660355        9.4110148385        8.4462709481
  C        11.0191133214        9.3825812774        8.2442624614
  H        10.9166026678       10.0914646085        7.4093574949
  H        10.9964984078        8.4142435269        7.7232071433
  H        10.0686740860        9.5276442421        8.8526318472
  H        -2.9599855717       14.9590663052       16.3726489213
  C        -2.9191103458       13.8351358166       16.1960700616
  H        -3.9218126994       13.4884497171       16.4938487726
  C        -1.9499452838       13.2023259835       17.1683730113
  C        -2.6116283585       13.5698591793       14.6589378948
  C        -2.4399092623       13.3343236881       18.7470089654
  H        -2.0121682349       12.1677220251       16.8510750154
  H        -0.9526975141       13.6451115038       17.1113110109
  H        -2.5558801870       12.5607239065       14.4112991319
  H        -3.2582383540       13.9318203098       13.8780754935
  H        -1.5841460913       13.8382456488       14.4269147581
  C        -1.3931795374       13.2515321240       19.9092283126
  H        -3.1797482183       12.5387796002       18.7677345274
  H        -3.0362390269       14.2029411730       18.9294366621
  C        -2.0160334571       13.3211312652       21.2477131993
  H        -0.7564905390       12.3706687688       19.8465031283
  H        -0.7563647952       14.1339158350       19.8056128102
  C        -0.9636162497       12.8435143489       22.3260740088
  H        -2.8672991840       12.7134249029       21.2584566553
  H        -2.3614313939       14.2654978257       21.4512249758
  C         0.3046191947       13.7818773951       22.5121216855
  H        -1.3893297835       12.7769760531       23.3317035578
  H        -0.6488006079       11.8369221874       22.0907713226
  C         1.4191393308       13.2623905391       23.5025134921
  H         0.7201738346       13.9496953143       21.5428656328
  H         0.0119831305       14.7656435183       22.9310085775
  C         1.8528815908       12.0122693357       22.8838354783
  C         0.9637501165       12.5532800813       24.7474221937
  C         2.7092394517       14.2583311331       23.5784854058
  C         1.6019055597       10.9276071119       23.6419492149
  C         2.4078579116       11.6481281768       21.6384217586
  C         1.0481215178       11.2422122065       24.8320230017
  C         0.3986446362       13.2493113259       25.8483697599
  H         2.9172537718       14.6087766286       22.4963683652
  H         2.3215001590       15.0715534686       24.1577109070
  C         4.0186063439       13.6541638588       24.1830535180
  S         1.9046898358        9.4421581434       22.8540703087
  C         2.4316511935       10.2798836279       21.4302506414
  H         2.5160095005       12.4198837020       20.8942104114
  C         0.6484986754       10.5536636791       25.8745217890
  H         0.3329662273       14.3136111915       25.8717248380
  C         0.0532406271       12.5367102872       26.9555942165
  H         4.2527115361       12.7155875446       23.6320224378
  H         3.7561462385       13.2627271908       25.1962229032
  C         5.3205173813       14.4354625585       24.0332959086
  C         2.6564882316        9.5364522051       20.1015119507
  C         0.1511081838       11.1451041794       27.0431584856
  H         0.8857143534        9.4821352544       25.8161713039
  C        -0.3384813809       12.8414444138       28.1891361485
  H         6.0659677406       14.1304748156       24.7259782811
  H         5.0592290052       15.4801571307       24.2944192828
  C         5.8940022134       14.4776160389       22.5549615046
  C         2.4951344302        8.2229005086       19.8549161164
  C         2.9307080709       10.3716628025       18.9297447357
  C        -0.2650666762       10.3826863727       28.2694996405
  C        -0.5292384210       11.7508778493       29.0102570974
  S        -0.5654609605       14.3709352027       28.9607437524
  H         6.6281337472       15.3150531336       22.7328966329
  H         5.0783977771       14.8036739612       21.9107551745
  C         6.4922744572       13.1588965469       21.9289574822
  N         2.0759558644        7.2202342316       20.7608443543
  C         2.6473432031        7.6932508505       18.5920928508
  C         3.1399289803        9.8062223822       17.6724682411
  H         3.1240018930       11.4340543747       19.1126275262
  C         0.8415420941        9.5748101256       28.9477307887
  C        -1.4766952784        9.5157721503       27.8929957822
  C        -0.9332913174       12.1532745499       30.2674076452
  C        -0.8689363216       13.5017168917       30.4400368542
  H         7.2940154697       12.8778545430       22.5874444071
  H         5.7300437210       12.3885578637       21.9145876219
  C         7.0661889084       13.2769602913       20.5435910481
  S         2.0924458387        5.7356076810       20.0220524168
  N         2.5063047231        6.2913426185       18.5562539508
  C         2.9835153294        8.3737790211       17.4413654607
  H         3.3151779334       10.4549544276       16.8372542709
  H         0.9192683050        8.6557334330       28.3586422743
  H         0.4522394805        9.2042786776       29.8746147772
  C         2.2233136082       10.2363890588       29.1863663183
  H        -1.1330436776        8.6979871939       27.2325506104
  H        -1.6230179954        8.9936512451       28.8094737767
  C        -2.7566860274       10.3006160958       27.4533389275
  H        -1.2294870511       11.3049678491       30.8987420824
  C        -1.2889840206       14.2200388247       31.7120656624
  H         7.5973726665       12.3879459839       20.2746866376
  H         7.9198679898       13.9698744714       20.6383182741
  C         6.0949741662       13.6684083096       19.3830382898
  C         3.2398450475        7.7152733058       16.1979519029
  H         2.5657415160       10.6827821017       28.2807121356
  H         1.9739031709       11.0803402401       29.7994511409
  C         3.4099354686        9.3697985718       29.7204969606
  H        -2.6013526391       10.7700070923       26.4956378858
  H        -2.9889239849       11.1238735354       28.1937912085
  C        -4.0007089938        9.3920675511       27.3146841782
  C        -1.4148775429       15.6483246097       31.8339536054
  C        -1.5605302219       13.4974616828       32.9491917659
  H         5.2048963021       13.1274934152       19.5862951681
  H         5.7435669471       14.6518316337       19.3782627493
  C         6.6550775975       13.3777314488       18.0265565228
  H         3.2000543354        6.6326387368       16.2496269298
  C         3.6912459693        8.1634177911       14.9662054023
  H         3.8268971594        8.6771387259       28.9946143854
  H         2.9603181981        8.7431037907       30.5303200722
  C         4.5175705094       10.2795725461       30.2884853484
  H        -3.7528904711        8.7023940357       26.5669462135
  H        -4.3135945599        8.8427823473       28.2162933576
  C        -5.1666442393       10.3334192776       27.0042935158
  N        -1.1626702335       16.5403885922       30.7894652540
  C        -1.7547163222       16.3160960553       33.0519279069
  C        -1.9421623266       14.0898182692       34.1342306628
  H        -1.2416732525       12.4740676507       32.9377348963
  H         7.6822042731       13.3458210611       17.8901572507
  H         6.3610467730       12.2892482313       17.8106505789
  H         6.2299109573       13.9829806477       17.2441659231
  S         4.0300462252        9.7727896735       14.4512162440
  C         3.8181785120        7.1890822129       13.9037295843
  H         5.1105777463       10.7432982967       29.4470669712
  H         4.1864406067       11.2076340658       30.7926228148
  C         5.4164578081        9.5864517090       31.2604837122
  H        -4.9453180011       10.8974543739       26.1287424977
  H        -5.3185373282       11.0185971286       27.8635898599
  C        -6.4518239160        9.6710616436       26.6870723920
  S        -1.2125062847       18.0475110961       31.3802073934
  N        -1.7165594390       17.7092326398       32.9083172370
  C        -2.0335578986       15.5830477986       34.2438502429
  H        -2.0809727466       13.5088434743       34.9575757137
  C         4.3452059467        9.1087393023       12.8521250060
  N         4.2106508224        7.7523789052       12.8185662475
  O         3.6982113798        5.9688888966       14.0164516955
  H         4.8110844247        9.0655569455       31.9812698751
  H         6.0036122417       10.2859911277       31.7956011104
  C         6.2922264524        8.5468256207       30.5224237233
  H        -6.3514678224        8.6082935596       26.4092380598
  H        -7.1033130898        9.6136833730       27.5044318647
  C        -7.0933482520       10.3881789186       25.4675238201
  C        -2.3596212951       16.2482340244       35.4381832525
  S         4.9696270992        9.9928765125       11.4562968015
  C         4.3555606501        7.0383964554       11.5382708221
  H         6.3702211004        8.7141650742       29.4184956644
  H         7.2860297606        8.7140630365       30.9559839641
  C         5.9335682976        7.1345827466       30.8402856732
  H        -6.4024853989       10.4144418744       24.5926184440
  H        -7.1512537410       11.4338289531       25.7671026298
  C        -8.4079473237        9.7587396943       24.9904488723
  H        -2.1606885127       17.2882558660       35.3839424804
  C        -2.9556328504       15.8549720133       36.5944420636
  H         4.9751281840        7.5956420596       10.8321985776
  H         4.8101209596        6.0244479558       11.7038909845
  C         2.9898883693        6.8840528964       10.8916373933
  H         6.2839486936        6.5199166189       30.0239695418
  H         4.8300650467        6.9239962529       30.8638286326
  C         6.6402146595        6.5134732013       32.0377105259
  H        -8.8921948786       10.3738987972       24.2754054280
  H        -8.0505671912        8.8798605770       24.4627611608
  C        -9.4274042600        9.4042859327       26.1621894077
  S        -3.6748225414       14.3309927354       36.8891524465
  C        -3.0913194109       16.8521845302       37.6317607172
  H         2.6380155026        7.8229621365       10.5075208820
  H         3.0437300398        6.2111967991       10.0693887659
  H         2.2691236846        6.5174804570       11.6051682771
  H         6.5372147307        7.2106202451       32.8339140969
  H         7.6518117080        6.2961563847       31.6980154446
  H         6.1407348266        5.5760518099       32.2859544855
  H        -9.2138650001       10.1350131440       26.8346653776
  H        -9.2360306799        8.3917998424       26.5050074434
  H       -10.4476384859        9.6105900049       25.8318210990
  C        -4.0177771645       15.0921619686       38.5166243136
  N        -3.7757609685       16.3510342958       38.6977021274
  O        -2.6881518944       18.0268081546       37.5296200674
  S        -4.8815670405       14.2077111442       39.7348862066
  C        -3.8464710432       17.0933211302       40.0359072249
  H        -3.9809477853       18.1001970686       39.7352668420
  H        -4.8265856782       16.8006757093       40.4529370288
  C        -2.6032451871       16.7554035071       40.8503762103
  H        -2.8176921728       15.9191085240       41.4563665272
  H        -1.8502658104       16.4251144240       40.2200769801
  H        -2.1516891166       17.5473949919       41.3750536785
