352
 i =    41800, time =    41800.000, E =        24.8187268666
  H        11.5021355974        7.7252425061       32.6114888765
  C        11.5663068931        6.6844398121       32.3970257180
  H        12.5902053681        6.4676622664       32.1120113843
  C        10.7035267669        6.0484993366       31.3472148787
  C        11.2479230747        5.9648485562       33.7410517615
  C        10.9142882713        6.5158907822       29.9326923486
  H        10.8328387029        5.0383787979       31.3388775871
  H         9.6550414007        6.1941717749       31.4626287571
  H        11.2947372922        4.8597078501       33.7500989701
  H        11.9849637762        6.2484397015       34.5232059739
  H        10.2664348245        6.1991914764       34.2344921453
  C        10.3956308138        5.5547526343       28.8777830202
  H        12.0325509025        6.5481775923       29.8317257455
  H        10.4385954132        7.5354911267       29.7480359926
  C        10.8672630164        5.8767923337       27.3670320973
  H        10.6294508335        4.5676161951       29.1147064893
  H         9.2475529840        5.6099131008       28.9598383050
  C         9.9313226640        5.3763499995       26.1987399947
  H        11.8178292980        5.3300493064       27.3644197720
  H        11.0327417754        6.9220159618       27.1867813581
  C         8.6763393554        6.2702309783       25.9053499178
  H        10.5654485237        5.3053076215       25.3167535057
  H         9.7696931938        4.3313802135       26.3951545194
  C         7.5599580214        5.5066130306       25.1187885064
  H         8.3526140629        6.5619106043       26.8751968688
  H         8.8221868790        7.2529429513       25.3768628659
  C         7.2065028172        4.1213665717       25.7628447655
  C         7.9312862572        4.7377372253       23.8523934042
  C         6.3278603585        6.3897339305       24.8120852789
  C         7.3432894169        3.0057711427       24.9462306390
  C         6.7076459307        3.7270932322       26.9907247155
  C         7.8439402403        3.3700603403       23.7318593351
  C         8.4098432643        5.4036968751       22.6901608645
  H         6.5009548354        7.0925836114       24.0319999982
  H         6.3659816830        7.0271638741       25.6723114052
  C         5.1261284439        5.5404673359       24.6157068112
  S         6.7119419574        1.5333573816       25.6047885467
  C         6.4783851744        2.3699894358       27.0383852186
  H         6.6222952759        4.4971473932       27.7626979566
  C         8.2647415941        2.7387508672       22.5868026824
  H         8.4643648772        6.4500993215       22.7381701828
  C         8.8292834348        4.8116889533       21.5784649164
  H         5.1625873265        5.0666767083       23.6094438140
  H         4.9071308910        4.8626394163       25.4687909124
  C         3.8743886040        6.3262053955       24.5911724553
  C         5.9347353667        1.6416616652       28.2806378612
  C         8.7403006103        3.4257343969       21.4362001290
  H         8.2111133123        1.6743996395       22.5772563720
  C         9.2685945295        5.2101957269       20.3326796106
  H         3.2738543658        5.8276344701       23.8115088719
  H         4.1760459749        7.2381418839       24.2003232187
  C         3.2318430410        6.6104983269       26.0605299867
  C         5.8316335029        0.2770070890       28.5006475754
  C         5.6013151611        2.5343883444       29.4432934250
  C         9.0878008553        2.6869750509       20.1886574588
  C         9.3145570206        4.0818251803       19.4826818605
  S         9.3899040619        6.7407890262       19.5846060221
  H         2.5049120776        7.4689359366       26.0664417956
  H         4.0028088399        6.8383743248       26.8628029849
  C         2.3067696389        5.4525564657       26.4861385308
  N         6.0083764894       -0.7280901419       27.4998595255
  C         5.5588263570       -0.2219562542       29.7848508038
  C         5.3317186070        1.9810940633       30.6966889261
  H         5.4288816328        3.5825893021       29.2510248986
  C         7.7631141326        1.9850664942       19.6554786792
  C        10.4265055920        1.8064922030       20.2005452592
  C         9.5742512982        4.5188214698       18.1937370141
  C         9.7447378607        5.8105255503       18.1094289853
  H         1.7307762520        5.1759584712       25.6914760769
  H         2.9723640384        4.6052032323       26.8480271719
  C         1.4567451405        5.8950604124       27.6480273150
  S         5.9776676181       -2.1612929620       28.2677161083
  N         5.5617276591       -1.6087466708       29.7604541760
  C         5.2799554751        0.5236915263       30.9817192610
  H         4.9105867919        2.7174881747       31.3516075677
  H         7.5326716096        1.0786671607       20.2264968419
  H         7.9735434542        1.7915838315       18.6358985849
  C         6.3967228304        2.7478849775       19.7747393644
  H        10.4439166763        1.3841280030       19.1905470347
  H        10.3814408059        1.1130820258       20.9874437251
  C        11.6333324007        2.6539872149       20.3060416293
  H         9.7212174085        3.7017608048       17.4592488110
  C        10.0999475018        6.4674387897       16.7819973380
  H         0.5452220457        5.2998248345       27.7827198786
  H         0.9554625568        6.8689095661       27.4628039096
  C         2.2473593196        5.8602782756       28.9941416438
  C         4.9532933310       -0.1105546785       32.2100004266
  H         6.4902171615        3.6443888818       19.2630194337
  H         6.2680607644        3.0350821259       20.7698509142
  C         5.1892879497        1.9033162266       19.2468783902
  H        11.5064218822        3.3336957347       21.0953850994
  H        11.7615678781        3.1962210881       19.4227575726
  C        12.9547556479        1.7755746639       20.5052896324
  C        10.2659846017        7.8228384168       16.5786143887
  C        10.3175553920        5.6435223336       15.5735093878
  H         2.9351647390        5.0264049288       29.1735749340
  H         2.8544378051        6.7928991074       29.0329087069
  C         1.3621730515        5.8198965097       30.1897792969
  H         4.8422758224       -1.1718848676       32.1023827385
  C         4.7272542792        0.2930604087       33.4688426316
  H         4.3705057954        1.9985107526       19.9467432030
  H         5.6750522655        0.9092797208       19.1170685270
  C         4.6389280123        2.5126401085       17.9498132033
  H        12.8952859949        0.9567432971       21.2546784645
  H        13.1026260666        1.2983497279       19.5673451400
  C        14.1219649786        2.7159996578       20.7172138160
  N         9.9932912267        8.8196785418       17.5222452658
  C        10.6337616887        8.4057246848       15.3748562274
  C        10.5420063115        6.2145279722       14.3099594140
  H        10.0657822558        4.5192011919       15.5512767445
  H         0.8143723107        4.9135674551       30.2875713152
  H         1.9315320956        6.0639722084       31.0918804566
  H         0.6585081283        6.6568299111       30.1455482763
  S         4.4437494927        1.8945814499       34.0206148522
  C         4.6064613664       -0.7028136977       34.5869620015
  H         4.6145923113        3.5615369363       17.9411392281
  H         5.4983544394        2.2939787255       17.2822751265
  C         3.2317820696        1.9206318557       17.5358480835
  H        13.9145236356        3.6573496548       20.0650831020
  H        15.0241312337        2.3036222899       20.2030711908
  C        14.4323035364        3.1664911962       22.1896228911
  S        10.2835897912       10.2914686298       16.8669931007
  N        10.8252171343        9.7921403976       15.4243441493
  C        10.6963672414        7.6720157030       14.1459421079
  H        10.7284129252        5.5067858726       13.4661595361
  C         4.2338112181        1.2338014037       35.6218493158
  N         4.3190949665       -0.1241980579       35.7484319681
  O         4.8354546157       -1.8522742855       34.3904790364
  H         2.7696743326        2.4912138609       16.7358489945
  H         2.5967806325        1.9842499042       18.3983144160
  C         3.1899852335        0.4768795379       17.0004393739
  H        14.8712394967        4.1480321276       22.1734102690
  H        13.4869601251        3.2822417347       22.6732867711
  C        15.2019426849        2.1959596688       23.0040024439
  C        11.0152820554        8.3907129826       13.0054104771
  S         3.7598878577        2.1185910600       37.0757489552
  C         4.3228069605       -0.8913553658       36.9995040335
  H         2.2994212273        0.3619472160       16.3906517219
  H         4.0668898620        0.2488239543       16.3961192691
  C         3.0887987906       -0.6783449877       18.0333330493
  H        15.2311070178        1.3988106538       22.3520958308
  H        14.4979686201        1.9274035858       23.7836311183
  C        16.5864993992        2.6084590735       23.4060528689
  H        10.6474774423        9.3643624340       13.0488163973
  C        11.5333290643        8.0789547724       11.7694844212
  H         3.5984633521       -0.6817689878       37.7486701912
  H         4.2710246648       -1.9261547518       36.8067620676
  C         5.7285443051       -0.7361010602       37.5662155159
  H         3.5461987334       -0.3501583197       18.9640897097
  H         3.7749443976       -1.4565258769       17.6467195678
  C         1.7002238267       -1.1920570179       18.3423298221
  H        16.5993175772        3.6383819999       23.7975679774
  H        16.9938160287        1.8947328755       24.1676192378
  C        17.5372032703        2.6383135000       22.1996122156
  S        12.1238763182        6.4926925017       11.3426217795
  C        11.6300550440        9.0757630761       10.7048030805
  H         5.9319037587       -1.5796471526       38.1542921312
  H         6.4754416790       -0.5696238596       36.7775703243
  H         5.7474598456        0.0901286538       38.2473536811
  H         1.6211650551       -2.1348614076       18.8564185084
  H         1.1309906411       -1.2997156692       17.4503671433
  H         1.0942604596       -0.3981557389       18.9236492726
  H        18.5173228696        2.7601336516       22.6475385004
  H        17.4404825160        3.4980513411       21.5659956709
  H        17.3805584513        1.7390433911       21.6045373778
  C        12.4126010297        7.2380279951        9.7548556639
  N        12.2918435421        8.5597887371        9.6632540276
  O        11.1163587104       10.1798122491       10.7689911269
  S        13.3779487401        6.4533434002        8.5638652534
  C        12.3375308945        9.3514268190        8.4021831766
  H        12.5883159306       10.3647839420        8.6094589364
  H        13.1825314603        8.9654720435        7.8184626121
  C        10.9996028955        9.2880788666        7.6921026807
  H        11.1519748347        8.7137366289        6.8455957815
  H        10.1200042392        8.9302127192        8.2556693398
  H        10.6798334809       10.2647026789        7.3125746950
  H        -4.0317706544       14.0709894053       16.9131773968
  C        -3.0186969821       13.7950779948       16.6143253116
  H        -2.9559938255       12.8296923023       16.9520347485
  C        -2.0925282799       14.5521585273       17.4962605463
  C        -2.6602263194       13.8221892555       15.1073563068
  C        -2.5545051784       14.6628967534       18.9497249661
  H        -1.0631513232       14.0884019480       17.4453168271
  H        -2.0004149189       15.5774783334       17.1371351735
  H        -3.5048131854       14.1956590470       14.5106663169
  H        -1.7121473652       14.3176485792       14.9375750526
  H        -2.3749540460       12.8499366286       14.7023826247
  C        -1.8475272268       13.6644937506       19.8880450493
  H        -3.6152154889       14.4826470964       19.0240956650
  H        -2.2705108744       15.7470431164       19.0310198323
  C        -2.2125192558       13.7688047037       21.3419768993
  H        -2.1360296794       12.7017212605       19.5919022039
  H        -0.8107351667       13.8039061326       19.7608261040
  C        -1.1371336599       13.2083474982       22.3780172259
  H        -3.1009041342       13.1582842471       21.5298045328
  H        -2.5065728601       14.8529752231       21.3832305014
  C         0.1180741241       13.9980916134       22.4314028813
  H        -1.5101135077       12.9785145801       23.3704273200
  H        -1.0933246820       12.2099744863       22.0616748817
  C         1.2046168431       13.2633121274       23.1513777564
  H         0.4740638781       14.2839157983       21.4756951932
  H        -0.0548913296       14.9349502365       23.0014372735
  C         1.5407666912       11.9671690031       22.4865217208
  C         0.6740649023       12.5887518809       24.4240770803
  C         2.4762348713       14.1439319420       23.2816520337
  C         1.1255823295       10.8658633677       23.2348562229
  C         2.1151440654       11.5429881549       21.2763768279
  C         0.6236217067       11.2264859242       24.4819801091
  C         0.1631382197       13.2563915833       25.5369859558
  H         2.7908547345       14.4702034742       22.2796237834
  H         2.2309157082       15.1141029149       23.8143287629
  C         3.6938319901       13.4725458728       23.8634629045
  S         1.5181790839        9.3691934490       22.4708084004
  C         2.0048600204       10.1691758449       21.0447715295
  H         2.3788396827       12.3207459588       20.5743200835
  C         0.1847101176       10.5948418554       25.6715529248
  H         0.1573757191       14.3404960039       25.6495233947
  C        -0.2619876301       12.6456583118       26.6662286885
  H         3.9738239093       12.5949392430       23.2852542432
  H         3.4453219972       13.1931085172       24.8657018683
  C         4.9552848250       14.3289309158       24.0569008535
  C         2.3501336474        9.4022763436       19.8090083423
  C        -0.2803294741       11.2927705142       26.7969401887
  H         0.3513269266        9.5553112557       25.7889803064
  C        -0.6564345823       13.0614780739       27.9445031658
  H         5.6770609505       14.2186228604       24.8810947128
  H         4.4362983215       15.2369906491       24.2755153212
  C         5.7396043330       14.5184024068       22.7170336901
  C         2.5023949036        7.9765964604       19.6453475576
  C         2.7386748778       10.2271982457       18.6547741787
  C        -0.7024387077       10.6129667761       28.0516847947
  C        -0.9346254368       11.9521399950       28.7444136383
  S        -0.8559706495       14.5779590401       28.8115238196
  H         6.3274133089       15.4456503353       22.9204541063
  H         5.0114889887       14.7629451997       21.9469110303
  C         6.6642549354       13.3549345672       22.3422392685
  N         2.2606318975        7.0016365177       20.6371467856
  C         2.8754920622        7.4272664057       18.4306242049
  C         3.1917727409        9.6708168561       17.4652215585
  H         2.8200305985       11.2426831632       18.8008262297
  C         0.3709872663        9.7751560237       28.8043370190
  C        -2.0294484007        9.8084168881       27.8180237315
  C        -1.4068948437       12.3533726586       30.0218364082
  C        -1.4426473613       13.7143320383       30.2435833644
  H         7.1859427616       13.1062457938       23.2126293684
  H         6.0331140425       12.4724000019       22.0048041402
  C         7.6209116360       13.8082751451       21.1943093216
  S         2.3938398858        5.5326608542       19.9973079606
  N         2.8008607542        6.0637535921       18.4883715490
  C         3.2403188556        8.2000108637       17.2851619649
  H         3.5661634330       10.2380420735       16.7151454023
  H         0.5843472563        8.9016493586       28.1140134813
  H        -0.0407834075        9.3677516576       29.7119735045
  C         1.7030895330       10.4331632811       29.1822890741
  H        -1.7893023875        9.0873851125       27.0416201235
  H        -2.3098097927        9.2539511158       28.7020728665
  C        -3.1221017954       10.6425104274       27.1935153458
  H        -1.7339728052       11.5605751501       30.6341311410
  C        -1.7491630308       14.4491455800       31.5134782955
  H         8.4530766086       13.1375155424       21.0254063096
  H         8.0982015191       14.7475243063       21.5236862981
  C         7.0101622460       14.2395558850       19.8787564260
  C         3.4674484973        7.5320007151       16.0249918645
  H         2.1081318501       10.9872787956       28.2545910809
  H         1.5309968218       11.2879841012       29.8379262983
  C         2.8694559903        9.4765020275       29.6273190322
  H        -2.8603875538       11.2675550699       26.3483050351
  H        -3.3389211432       11.2647668106       28.0877761201
  C        -4.4846069306        9.9342211999       27.0022629931
  C        -1.7694260330       15.8800138759       31.7094007785
  C        -2.1093112791       13.6371715021       32.6302263447
  H         6.1805746697       14.8845391778       20.0700156478
  H         7.7019276904       14.8434199067       19.3541366097
  C         6.6077701372       13.1208387590       18.9337670507
  H         3.5025468375        6.4191345374       16.1173680879
  C         3.6836201515        7.9984154809       14.7776324125
  H         3.1140218064        8.8632611447       28.7995487181
  H         2.5390370631        8.7889016532       30.4533404568
  C         3.9833660651       10.3648648877       30.1533668826
  H        -4.2764581173        8.9039079990       26.7693139683
  H        -5.1266646085        9.9080423813       27.8923381372
  C        -5.3183840598       10.5525390811       25.9093198168
  N        -1.4029043587       16.8452741060       30.7376570665
  C        -1.9530936594       16.3713816364       32.9906773167
  C        -2.4339299395       14.1803212867       33.8785977602
  H        -2.1150667588       12.5631528979       32.5426991568
  H         6.5219689631       13.6102636242       18.0064889585
  H         7.2656416843       12.2993470588       18.9351627972
  H         5.5934393569       12.7775090512       19.1917965400
  S         3.8857417997        9.6760751460       14.3301435610
  C         3.8022174567        7.0381058792       13.6453918746
  H         3.9652007640       11.3707277472       29.6674594854
  H         4.0085027268       10.5918762212       31.2426356100
  C         5.3768304658        9.8358293435       29.8214108373
  H        -4.8608495204       10.5717282925       24.9160010818
  H        -5.4041033648       11.6352185013       26.2089712466
  C        -6.6345405402        9.7857789762       25.8731531084
  S        -1.2275406905       18.2309813307       31.5569457396
  N        -1.8645279216       17.7478765812       32.9931479316
  C        -2.3529239801       15.6211565571       34.1475449577
  H        -2.6717829511       13.4482776283       34.6689846576
  C         3.9887315640        9.0491827427       12.6853226903
  N         4.0458627382        7.7122806060       12.5188430408
  O         3.6224474486        5.7873186642       13.7874984116
  H         6.0802358451       10.6629187320       30.0906846794
  H         5.4341217203        9.6540461146       28.7243744360
  C         5.7837419179        8.5659409153       30.6025033778
  H        -6.4800280976        9.1835690653       25.0105555994
  H        -6.8231741935        9.1576435407       26.7793804803
  C        -7.6819901601       10.8108720505       25.6454846473
  C        -2.5023689696       16.2482754795       35.4423618467
  S         4.1541876630        9.9235383691       11.2181494726
  C         4.0412854241        6.9658264403       11.2672825085
  H         6.7646721085        8.7805088395       31.2505348064
  H         4.9668944536        8.2908198454       31.2708108674
  C         6.1501493288        7.3943043619       29.6511837100
  H        -7.6079166133       11.2922953105       24.6589313426
  H        -7.6572478680       11.5253411226       26.4492970019
  C        -9.0442877386       10.1954918621       25.6410231833
  H        -2.0942900265       17.2890477845       35.5066027975
  C        -2.9272311798       15.8411145550       36.6408285386
  H         4.6803672976        7.4929278392       10.5760045713
  H         4.5982843088        6.0264772995       11.3490324087
  C         2.6298195115        6.7149181785       10.7888716465
  H         7.0785923186        7.6714995710       29.1579794910
  H         5.4100740245        7.2711674052       28.8683147216
  C         6.4555974438        6.1477717531       30.4105028383
  H        -9.7997643788       10.8417669119       25.3585433890
  H        -9.1228562177        9.2922540299       25.0540749080
  C        -9.5240347163        9.8215849132       27.1146097971
  S        -3.6407731710       14.3434516538       37.0692710449
  C        -2.9976102229       16.9305356488       37.7080223881
  H         2.7049890000        6.4565652934        9.6696704419
  H         2.1014304465        5.9323700381       11.3365679715
  H         1.9805674384        7.5934120603       10.8481914584
  H         6.8422079909        6.3535701240       31.4347689761
  H         7.1064967431        5.4237155108       29.9386765429
  H         5.6257005613        5.5311098715       30.5426492620
  H        -9.9093647245        8.8236961022       27.2524733134
  H       -10.2293378813       10.5607599473       27.3386955026
  H        -8.7236082223       10.0069784508       27.8861864610
  C        -4.1118668914       15.0823197121       38.5805236768
  N        -3.7486871237       16.3951869254       38.6904367175
  O        -2.6141867643       18.1249535973       37.5912011839
  S        -5.3904823306       14.4698561186       39.6931213596
  C        -3.7431650782       17.1616428064       39.9189800227
  H        -4.0417218274       18.1469047069       39.6395840410
  H        -4.6895543310       16.9818096512       40.5340515843
  C        -2.3794411468       17.1188121601       40.6152675105
  H        -2.3385732573       17.6773605126       41.5136722702
  H        -2.0971654062       16.0883313435       40.8369684651
  H        -1.4697346646       17.2923609725       40.0236251055
