352
 i =    23700, time =    23700.000, E =        24.7749406811
  H        10.6748353661        7.6076659394       32.4998922730
  C        11.1717850588        6.6960770943       32.1687247888
  H        12.1474200304        6.9684930034       31.7340800254
  C        10.3508635522        6.2095324670       30.8918382541
  C        11.2623980240        5.6762008416       33.2769861088
  C        11.1602717508        5.5141257705       29.8266378183
  H         9.5835164586        5.4559895699       31.0233219502
  H         9.9057293570        7.0968314390       30.4684565714
  H        11.7838737581        4.7983508714       32.9533902937
  H        11.9322191116        6.1116793700       34.0009106383
  H        10.2273623492        5.4575479139       33.6299445005
  C        10.3547482594        4.8475725024       28.7436489413
  H        11.7826741391        4.7640285943       30.3017167178
  H        11.8511623467        6.2191722686       29.3781431343
  C        10.7863165428        5.1632013573       27.2560761745
  H        10.2258266446        3.7613086596       28.8030367013
  H         9.3419131972        5.1087559124       28.8290680021
  C         9.7686988318        4.5866602876       26.2591050297
  H        11.7484330637        4.7164346912       26.9544269368
  H        10.9931012861        6.1211111261       27.1105153052
  C         8.5963955831        5.4998779134       26.0048709755
  H        10.3097717469        4.3870648318       25.3461386959
  H         9.4102968546        3.7180982211       26.6798723763
  C         7.3455758021        4.7301875342       25.3668620995
  H         8.2712214981        6.0540686670       26.9286885367
  H         8.9230809249        6.1697811327       25.2316763286
  C         6.8767191804        3.4389199869       26.0461602005
  C         7.6742120716        4.0480201911       24.1282262146
  C         6.1365724384        5.6940871832       25.0994887884
  C         7.1237892022        2.3140980907       25.2368798540
  C         6.2148273037        3.0720318899       27.2515829108
  C         7.6320687359        2.7257988879       24.0041304976
  C         8.2155400475        4.7460047131       23.0603881562
  H         6.6663412322        6.4514300557       24.5061658985
  H         5.8109018064        6.2664304141       25.9631886106
  C         4.9077962470        4.9343757741       24.4686732191
  S         6.6580010646        0.8559041809       25.9135697349
  C         6.1247696464        1.7007532607       27.3487613051
  H         6.0305144471        3.8277351561       27.9784057523
  C         8.0807307691        2.1967515911       22.8817367154
  H         8.4054317361        5.8191530830       23.1466852688
  C         8.7282279081        4.2158169571       21.8970841884
  H         5.0087908343        5.1160645033       23.3925999008
  H         4.8053475716        3.8460790119       24.6834494468
  C         3.5404927755        5.6164164420       24.7987076330
  C         5.7183997985        1.0040271551       28.5910404949
  C         8.6167982578        2.9052008185       21.8049775149
  H         7.8945048909        1.1265918234       22.9118424449
  C         9.0785495244        4.6605467348       20.6824911601
  H         2.7424072802        5.2301110308       24.1774394900
  H         3.5796814793        6.6893743291       24.4576237234
  C         3.0835887807        5.6766219871       26.2386185019
  C         5.8980426213       -0.3971651295       28.8363773293
  C         5.1748923796        1.7797966529       29.7283820656
  C         9.0213257095        2.2346768668       20.4696424435
  C         9.2771873279        3.5931665824       19.8071212277
  S         9.5343297979        6.1571177631       19.9428144290
  H         2.1031689226        6.2348211925       26.2327628512
  H         3.6943652389        6.3291621274       26.8796938908
  C         2.7704305186        4.2698322606       26.8845023112
  N         6.4682057767       -1.2490899974       27.9443724879
  C         5.6651095160       -0.9692220406       30.0642925978
  C         5.0018534284        1.2604033886       31.0065511986
  H         4.9123920494        2.8215474188       29.5884679322
  C         7.8965347068        1.4544827165       19.8428333469
  C        10.3010167083        1.3465472571       20.5905240089
  C         9.6369688573        4.0416994388       18.5064885951
  C         9.7473243262        5.4210747999       18.4397825156
  H         2.5655829449        3.5754660532       26.1626797171
  H         3.6149746411        3.9347895122       27.4731025653
  C         1.6326102449        4.4883409631       27.8852389590
  S         6.4136136917       -2.6996914708       28.6795579380
  N         6.0039661608       -2.3179665553       30.1611569015
  C         5.1814967735       -0.2019911059       31.2040604107
  H         4.6693346943        2.0201498197       31.6982693206
  H         7.5891265705        0.6968653034       20.5060702456
  H         8.2928271826        0.8535722267       19.0116851736
  C         6.6812562764        2.2798029917       19.4668020582
  H        10.5563130089        0.9751894531       19.5861925132
  H        10.1435712913        0.4248083089       21.1358005783
  C        11.5239160812        2.0513273905       21.1460191781
  H         9.8376547600        3.3173139526       17.7399104620
  C        10.0160733174        6.1977731278       17.2396198408
  H         1.3761435277        3.4864746012       28.3776379232
  H         0.8008590870        4.8562248926       27.2643673220
  C         2.0429114993        5.3912352695       29.0909159924
  C         5.0457407615       -0.8533834367       32.4807002460
  H         6.7982692713        3.2569064767       18.9920762280
  H         6.1207271792        2.6093295064       20.2917820576
  C         5.7235547572        1.4464167337       18.6349071430
  H        11.2904837952        2.4832807194       22.1393971939
  H        11.8216242597        2.8888384397       20.5226067968
  C        12.6719531280        1.0128161161       21.1635301611
  C        10.0143721168        7.6370280951       17.0947694996
  C        10.1965457598        5.4474814931       15.9232504367
  H         3.0595575824        5.7477252494       29.1083032067
  H         1.4022433031        6.3267862653       29.0706310486
  C         1.7307972792        4.8135456396       30.4479676044
  H         5.2148364598       -1.8977561754       32.5019975847
  C         4.7791301281       -0.3654257708       33.7620197105
  H         5.3679257781        0.6197571889       19.2668706596
  H         6.1974856548        0.9554639063       17.8046395995
  C         4.4207060406        2.1341835005       18.2558892667
  H        12.6979075208        0.6276464754       22.1884003779
  H        12.3683798971        0.1890224983       20.5954828794
  C        14.0372083227        1.6660081601       20.7187154328
  N         9.8714029922        8.5126816104       18.1800396985
  C        10.2024960825        8.3028685656       15.9098107626
  C        10.3676632509        6.1397827145       14.7257489178
  H        10.1892187387        4.3682404521       15.9158306590
  H         1.8838779617        5.5866124206       31.1817761428
  H         0.6436483237        4.4856494819       30.6057013281
  H         2.4611106483        4.0726884028       30.7101401201
  S         4.4619982596        1.3018142253       34.1857337007
  C         4.8269665779       -1.3154201567       34.8369025962
  H         4.2298774339        2.9883466740       18.8801397443
  H         4.4178247526        2.4622129215       17.1805644867
  C         3.3093123270        1.0572374494       18.3174313697
  H        14.0124481551        2.3737026413       19.9078873884
  H        14.6682722537        0.8617644607       20.3273290223
  C        14.7470418646        2.4291299882       21.8767886835
  S         9.8736108458       10.0393614708       17.6181679694
  N        10.2392708751        9.7046992907       16.0746497463
  C        10.4240162296        7.6515018710       14.6945669793
  H        10.6000121111        5.5021852061       13.9065701685
  C         4.1500189787        0.6361590342       35.8487064805
  N         4.3591401157       -0.7219296742       35.9321691867
  O         5.2462638993       -2.4363611835       34.7826594494
  H         2.3587997286        1.5151460873       18.1490977996
  H         3.2557903225        0.6962318892       19.3656607871
  C         3.5708647886       -0.2606341619       17.5117588706
  H        15.5954109730        2.9574229135       21.5035142484
  H        14.0994753575        3.1524124376       22.3278327335
  C        15.2121251733        1.4398035752       22.9838929194
  C        10.7816235098        8.4982597308       13.5943436699
  S         3.7045443116        1.5639944459       37.2991740736
  C         4.2641241309       -1.5085273161       37.1983046100
  H         3.9331014926        0.0867353106       16.5250141457
  H         4.2223425617       -0.9640265912       17.8560622924
  C         2.2424599093       -1.0548905402       17.1640573958
  H        15.4206087708        0.4791888559       22.5961146091
  H        14.3347155567        1.1729670201       23.6274520762
  C        16.3079435107        1.8847225156       23.8210802889
  H        10.5305564379        9.5251996462       13.7030705931
  C        11.3007491791        8.2162671624       12.3620530486
  H         3.5271278950       -1.1462142711       37.8630853687
  H         3.9338157966       -2.5748962640       36.9311919467
  C         5.6756591089       -1.5044576912       37.9686870066
  H         2.4275770719       -1.4568100156       16.1394478909
  H         1.3682698308       -0.4310727361       17.1446244841
  C         2.0848692961       -2.2892917044       18.0115407297
  H        16.0108398175        2.8451723193       24.2331014595
  H        16.4832514679        1.2450897877       24.7169865422
  C        17.5364734382        1.8540554826       22.9589170755
  S        11.6196752601        6.6700518310       11.6559933447
  C        11.4679528812        9.3874153870       11.4949163808
  H         5.6164431894       -1.6053219692       39.0742352563
  H         6.2143516060       -2.3177798684       37.5592868646
  H         6.3210679931       -0.6543406758       37.7191234149
  H         2.6367260657       -3.1176748551       17.4908314801
  H         0.9821511421       -2.5624033839       18.0170347666
  H         2.3248583413       -2.0954851597       19.0196558062
  H        18.4112479289        1.5690381908       23.5738605272
  H        17.6781699721        2.7573317675       22.3671619286
  H        17.4974930970        1.0804463947       22.2152156505
  C        11.8895298794        7.5695145009       10.1724119738
  N        11.8834772461        8.8841727948       10.2480195549
  O        11.2290237418       10.5696557946       11.8288431379
  S        12.4160336057        6.7778374300        8.6575643953
  C        12.0461040211        9.7418307470        9.0957643858
  H        12.2247500954       10.7434952073        9.4907307921
  H        12.8587106215        9.4608885662        8.4176021949
  C        10.6653321448        9.7930674797        8.4103233290
  H        10.4607077487       10.8695412321        8.1955056764
  H        10.7766614014        9.1911584662        7.5293607503
  H         9.9012252715        9.3294405075        9.0096972028
  H        -3.8400489148       14.5403687044       16.3012639718
  C        -3.3895044344       13.5019940461       16.2760009618
  H        -4.2324455352       12.8292513493       16.4458451083
  C        -2.4285173651       13.2606752273       17.4018927650
  C        -2.7427618197       13.3646636420       14.8413826627
  C        -3.0352700314       13.3799332438       18.7764034377
  H        -1.9773656054       12.2474340097       17.3074314554
  H        -1.5760736843       13.9453080345       17.3292854493
  H        -1.6945268137       13.6586907658       14.8353213105
  H        -2.9204573189       12.4359608969       14.3567340835
  H        -3.2082491700       14.0917593759       14.1948011769
  C        -2.0435834810       12.9573395844       19.8423794476
  H        -4.0297424853       12.8187796980       18.8041683985
  H        -3.3957956112       14.4097724200       19.0265353866
  C        -2.4594296507       12.8780163758       21.2685772477
  H        -1.5843242457       12.0628822711       19.4863284627
  H        -1.2807999445       13.7098503257       19.8131822644
  C        -1.4050843556       12.2666947748       22.2184853080
  H        -3.3724364008       12.3213367595       21.3741057555
  H        -2.7026473198       13.9530268017       21.5565428198
  C        -0.2797641252       13.2341378816       22.5856769208
  H        -1.7602620055       11.9296937108       23.2162698421
  H        -0.8894580502       11.4013139131       21.7115412713
  C         0.9429906488       12.6224677123       23.2557754079
  H         0.0452023009       13.7406826345       21.6387242337
  H        -0.4865244468       14.0556754818       23.2140266086
  C         1.3657473731       11.3524424020       22.5836862515
  C         0.5161510600       11.8891220957       24.4674722152
  C         2.1454794107       13.5716216987       23.4598514566
  C         1.1939739891       10.2230395121       23.3519695602
  C         1.8206289669       11.0187973678       21.3554782383
  C         0.7330907221       10.5535605730       24.5670728375
  C         0.1741994302       12.6041292972       25.6234930344
  H         2.2380775478       13.9983970835       22.4800618108
  H         1.8286567534       14.4612815192       24.1585357809
  C         3.4414275216       12.7884476657       23.9071835775
  S         1.7305028356        8.7830646524       22.5955165033
  C         2.1275118521        9.7212693259       21.2387131544
  H         1.8754673232       11.8600739229       20.6108625091
  C         0.3588562811        9.9654264730       25.7911150715
  H         0.1410609427       13.6487069636       25.4129031989
  C        -0.1275326615       12.0044007272       26.7933338564
  H         3.7561407077       12.1264538823       23.0560783559
  H         3.4339596314       12.3683402678       24.9329634191
  C         4.6224566835       13.7048452985       24.0755234983
  C         2.5077999413        9.1130733995       19.8899426619
  C        -0.1278735135       10.6612430563       26.9050876111
  H         0.5052177384        8.9293368014       25.9056680657
  C        -0.6899504063       12.4388972854       27.9588179849
  H         5.2383708515       13.2642310759       24.8709415833
  H         4.2374588496       14.6722669154       24.3937636260
  C         5.5761055980       14.0097993437       22.8599179486
  C         2.5517739700        7.7453602637       19.5931077136
  C         2.8294021110       10.0269200556       18.7778909129
  C        -0.6661899565       10.0741647765       28.1339042175
  C        -0.9418167399       11.3734492795       28.7976299127
  S        -0.9834780947       14.0221065778       28.6695623876
  H         6.3278845624       14.6183457113       23.3422152466
  H         4.9826769552       14.6167164035       22.1148289950
  C         6.3291405209       12.8107963977       22.3286721065
  N         2.4028808455        6.7570748050       20.5534100834
  C         2.8157502521        7.2481462838       18.3517938749
  C         3.1762798196        9.5481358412       17.5069107095
  H         2.8253206405       11.0871067272       18.8885387639
  C         0.4041400028        9.3070664192       28.9914456230
  C        -1.8947346587        9.1010801275       27.8240505791
  C        -1.4853618400       11.8385985727       30.0250823070
  C        -1.4818115094       13.2010362056       30.1493960064
  H         6.8794310479       12.4750428629       23.2131948975
  H         5.7646103800       11.9803426612       22.0621574225
  C         7.3346535243       13.2773215518       21.2626028879
  S         2.3137251903        5.3101714462       19.7842320338
  N         2.6687010199        5.8555095633       18.3032280047
  C         3.1474297336        8.0645592217       17.2446690411
  H         3.2448545879       10.2619031842       16.7603138637
  H         0.5449209254        8.4813617820       28.3067638762
  H         0.0031069034        8.7903660956       29.9275355051
  C         1.7483900578       10.1485872176       29.2770322086
  H        -1.6661701337        8.4647495602       27.0217704592
  H        -2.1267920566        8.5003419896       28.7190760403
  C        -3.2250267193        9.8817221687       27.4746353030
  H        -1.6102628609       11.1409937556       30.7867016624
  C        -1.6905056128       13.8878993814       31.4514008572
  H         7.9952660631       12.4006032593       21.0824969676
  H         8.0401594147       13.9914176739       21.6972455282
  C         6.8307168793       13.8259703634       19.9029563114
  C         3.2641737992        7.4164180041       15.9600771775
  H         2.2240346871       10.6799384502       28.4480164015
  H         1.5681082480       10.8738827285       30.0849808074
  C         2.9473367250        9.2147553947       29.5690594469
  H        -2.9588195678       10.4028481979       26.6117024276
  H        -3.2736825754       10.5644186643       28.3388236109
  C        -4.4172547702        8.9254626741       27.1640931056
  C        -1.6840559956       15.2799161283       31.7170267076
  C        -1.8581555506       13.1039684963       32.7268016138
  H         6.2305606713       14.7460468995       20.0180610972
  H         7.7300756037       14.0374480097       19.3537788004
  C         6.0418507850       12.8214432562       19.0873928354
  H         3.0208034997        6.3782133260       15.9167891654
  C         3.6327821031        7.8888443914       14.7086023444
  H         3.5233202841        9.1305309131       28.6501525532
  H         2.5855315049        8.2365768768       29.8556534074
  C         3.8482819309        9.7335026664       30.7073122069
  H        -4.1459016825        8.1419820023       26.4760441175
  H        -4.6730946276        8.4451804236       28.1705938982
  C        -5.5907327868        9.8958989584       26.8830691419
  N        -1.4837473738       16.1676903388       30.6689327502
  C        -1.9011652743       15.9347385923       32.9011549170
  C        -2.1112603251       13.8119629820       33.9665147306
  H        -1.8384377700       12.0674346222       32.7144462271
  H         5.2331705876       12.2524227818       19.6166741680
  H         5.5599259268       13.4292363947       18.3198442033
  H         6.7401210695       12.1993687366       18.6331714160
  S         4.0451943160        9.4965699994       14.2250959587
  C         3.7344131735        6.8798501437       13.6256372624
  H         4.2658738761       10.6525620612       30.4162409938
  H         3.4605085539        9.8708933891       31.7086955383
  C         5.1313008785        8.8235436250       30.6812223108
  H        -5.5399786221       10.4268031349       25.9155409573
  H        -5.5406448286       10.6294081940       27.6422765967
  C        -6.9337313524        9.1354671224       27.1485264168
  S        -1.3165087667       17.7096248010       31.2414801840
  N        -1.9239860923       17.3516429098       32.6993039600
  C        -2.1795742846       15.3072779727       34.0422039808
  H        -2.2445732621       13.1779782228       34.9082563672
  C         4.1677087593        8.8890693883       12.5726446528
  N         4.0690794117        7.5162954047       12.4350326472
  O         3.5667547454        5.6911312662       13.7507759294
  H         5.9966687899        9.4626063242       30.6657930429
  H         5.1240646446        8.3296704609       29.7268645375
  C         5.1243267700        7.8436426537       31.8769800695
  H        -7.1254313183        8.1412380261       26.7297132743
  H        -6.9565391648        8.9609326849       28.1807939043
  C        -8.0963541260       10.0675607859       26.8494074058
  C        -2.5478450018       15.9884914281       35.1630399576
  S         4.7679092408        9.8567917863       11.1533811543
  C         4.1568048403        6.8244983883       11.1274679779
  H         5.0687994844        8.3914703727       32.8303822313
  H         4.1817201903        7.3320082639       31.8112117410
  C         6.1983078927        6.8097086070       32.0553276994
  H        -7.6259432840       10.9735791788       26.5645116762
  H        -8.7251954792       10.2149270148       27.7356829657
  C        -8.9845081747        9.7031888082       25.6508342281
  H        -2.0073901950       16.9328351434       35.2610490755
  C        -3.0390462848       15.5933186334       36.3996428476
  H         4.7648605667        7.3438568356       10.4349226835
  H         4.6856564726        5.8712384843       11.1937070873
  C         2.8002606143        6.8108577632       10.3996698814
  H         6.3253537646        6.7175280271       33.1350168155
  H         7.0924617979        7.1878979336       31.6095170947
  C         5.7830067880        5.5282395248       31.3386601042
  H        -9.4635363443        8.7470911035       25.8052206510
  H        -9.8451084150       10.3372052107       25.4600088452
  C        -8.1513789171        9.6079472718       24.3965260363
  S        -3.7201634084       14.0995012697       36.8274459865
  C        -2.9913100070       16.6777995440       37.4234633362
  H         2.7363985217        7.4502325918        9.5079713109
  H         2.4729634118        5.8024650584       10.0883339707
  H         2.1506521770        7.1885882903       11.1883734755
  H         4.7032566076        5.2909737548       31.2411761584
  H         6.1610881377        4.6364077464       31.8577161168
  H         6.1737390026        5.4549709622       30.3319650527
  H        -7.9664446695        8.5781857627       24.2715524001
  H        -7.1649762368       10.1283949071       24.4048404503
  H        -8.7512607493       10.1058323800       23.5893257381
  C        -3.9294173294       14.8121346535       38.3829181428
  N        -3.6739556920       16.1264463481       38.4826093640
  O        -2.7415392872       17.8897814991       37.2946153474
  S        -4.5319211523       13.8982872243       39.7997439170
  C        -3.8671783045       16.8363349693       39.7696540911
  H        -4.1093367881       17.8432928596       39.7025359509
  H        -4.7351121197       16.5026093741       40.2596107480
  C        -2.6200810028       16.7200863271       40.6911003105
  H        -1.9591447453       16.1563915378       40.0454950852
  H        -2.2177573809       17.7241124699       40.8257210021
  H        -2.8528488605       16.2718110289       41.6827200698
