352
 i =    72100, time =    72100.000, E =        24.6803797575
  H        12.4719913301        6.6628043562       32.2597596629
  C        11.4501741391        6.4965536040       32.5458056824
  H        11.4057198789        5.4427851471       32.5400582083
  C        10.6212659285        7.1532785008       31.3719347389
  C        10.9760258153        6.8767427624       33.8682220758
  C        11.2040358576        6.7648166087       29.9824593955
  H         9.5837681005        6.8356923463       31.4928246302
  H        10.5107414840        8.2830574825       31.4515598785
  H        10.8791995727        7.9291669651       34.1188289541
  H        10.0858714804        6.2674136630       34.1410620508
  H        11.7270929655        6.4586512548       34.5635981819
  C        10.1076037762        6.8642507231       28.8931037348
  H        11.7293903438        5.8315908546       29.9460927421
  H        11.9777793983        7.5003093052       29.7741189823
  C        10.5627353273        6.3298543840       27.5073969662
  H         9.2380502986        6.4252173140       29.2393774250
  H         9.8825597273        7.9463455657       28.7164229977
  C         9.5242487868        5.5763839925       26.6480036775
  H        11.3655967445        5.6012860806       27.7819499687
  H        11.0190343979        7.1326203392       26.9915122425
  C         8.4008638133        6.4334735049       26.1036102193
  H        10.0408594811        5.1456286479       25.8313710423
  H         9.1534960338        4.7740293510       27.2791036446
  C         7.3555613348        5.6724750387       25.1002403646
  H         7.8391414413        6.9254608401       26.9078660129
  H         8.8569758135        7.2449123175       25.5358289521
  C         6.9907072201        4.3569083741       25.8202356522
  C         7.9485355249        4.8813647762       23.8814562494
  C         6.0641885565        6.3619780984       24.6519109441
  C         7.2275702155        3.2676499255       25.0144055546
  C         6.3630902862        3.9561972830       27.0140611511
  C         7.8613737764        3.5828434527       23.8182446593
  C         8.4224052535        5.5426809599       22.7753459233
  H         5.5596313444        5.6769289691       24.0122783259
  H         6.3760214726        7.1842477420       24.0479380278
  C         5.0720876943        6.8320531390       25.7113071706
  S         6.7731264541        1.7551920710       25.8465650106
  C         6.3088995530        2.6169424745       27.2781272191
  H         6.2351426558        4.7672975846       27.6974706104
  C         8.2641931706        2.8799075026       22.7236194525
  H         8.3433325805        6.6274806482       22.8144564333
  C         8.8270294011        4.9199691433       21.6678262748
  H         5.0581525281        6.1761513449       26.5724987743
  H         5.3245642927        7.7707399675       26.1287955321
  C         3.6521074316        7.1309000642       25.1452619112
  C         5.8344498443        1.9464458462       28.5833179246
  C         8.7998726370        3.5437987843       21.6344988999
  H         8.1924733514        1.8037983561       22.6458432630
  C         9.2353463430        5.2733360847       20.3721472751
  H         3.3448699042        6.3337742964       24.5420687035
  H         3.5577371129        7.9986561299       24.5140447361
  C         2.6285965556        7.2128097319       26.3265824001
  C         5.9684573609        0.5640604711       28.9281777996
  C         5.4029948330        2.7725501357       29.7216834160
  C         9.1844761145        2.8701173556       20.3558168173
  C         9.4470254002        4.1664346043       19.5679558424
  S         9.4986525832        6.8309273405       19.5748301052
  H         1.6918900016        7.7587993764       26.1201348874
  H         3.0242542711        7.8211066052       27.1521296422
  C         2.1546088613        5.8522214972       26.8928508112
  N         6.3862813937       -0.4953484699       28.0382205427
  C         5.7192177733        0.0058176437       30.1932684142
  C         5.1994685126        2.2487374820       30.9870419896
  H         5.4592967844        3.8565094234       29.6902866248
  C         8.0032603451        2.1039404206       19.6006442119
  C        10.4625170576        2.0110261377       20.4847880589
  C         9.8219561875        4.6346827912       18.2705378400
  C         9.8616899126        5.9913644901       18.1050266089
  H         1.5430666970        5.4545330627       26.0719258031
  H         3.0150912269        5.1586471999       27.0383381554
  C         1.4055805875        5.8538912718       28.2011005938
  S         6.5012635842       -1.9165218285       28.8303030950
  N         5.7443244741       -1.3734093070       30.2090338477
  C         5.2617239170        0.7954082861       31.2595930952
  H         4.8624193212        2.9857783942       31.6605763574
  H         7.6122989394        1.3351681253       20.3536914568
  H         8.3983528485        1.5242950093       18.7683031249
  C         6.9020907883        3.1080682367       19.1324750394
  H        10.9196051123        1.6368801231       19.5646071613
  H        10.0965720808        1.0632249300       20.9144723305
  C        11.6416171242        2.6296790875       21.3556075426
  H        10.0483602808        3.8329368926       17.5690907521
  C        10.3383528495        6.7312120800       16.8868363993
  H         0.6687468794        5.0868020151       28.1764539426
  H         0.8196056334        6.7435055998       28.3082599261
  C         2.3985649567        5.9126008847       29.4212233853
  C         5.0336303104        0.1228914346       32.5133896006
  H         7.1810551477        3.3941744237       18.0905893299
  H         6.7637627197        4.0102470618       19.7307356988
  C         5.4372966326        2.5235155443       19.3215279772
  H        11.2668016233        2.7368302203       22.3883840829
  H        11.8641520211        3.6787588237       21.0143847659
  C        12.9436235649        1.7548594820       21.4376221405
  C        10.3401356849        8.1070934927       16.6524266013
  C        10.5653992551        5.8756881974       15.6429403697
  H         2.9280112988        4.9552181578       29.3616911157
  H         3.0522131095        6.7687447538       29.3245420088
  C         1.6709050952        5.8647680006       30.7618328413
  H         5.5695975491       -0.8198657869       32.6506327356
  C         4.6050904129        0.6596701816       33.7406453501
  H         4.8049907475        3.2998524719       19.6277485981
  H         5.3314848676        1.7855275361       20.1013534709
  C         4.9713129137        1.7766704559       18.1419790323
  H        12.8185354820        0.9182731992       22.0811773360
  H        13.0966498545        1.4315679646       20.4495865185
  C        14.0694598660        2.6829132967       21.9949151824
  N        10.1632976221        9.1397359069       17.6101235938
  C        10.6732804917        8.6979624025       15.4047804268
  C        11.0152656573        6.4682910443       14.4255074984
  H        10.4754626446        4.8123448129       15.6180182380
  H         0.9722374183        4.9426706484       30.8630593502
  H         2.3213249903        5.7890010217       31.5150104800
  H         0.9897313847        6.6573513034       30.8813165341
  S         4.2927168020        2.2313011646       34.0928771903
  C         4.6530269151       -0.2753092187       34.9293068698
  H         5.1726529240        2.3442676579       17.2434083707
  H         5.6339314037        0.9578677331       17.9155816919
  C         3.4785262121        1.4003369295       18.2691552386
  H        13.5352580320        3.2163308360       22.7579195672
  H        14.6127071265        3.3884662395       21.3123575771
  C        15.1731338392        1.8648708080       22.5822005433
  S        10.1193715984       10.6044042154       16.8880176742
  N        10.5105673760       10.1219014132       15.4345964817
  C        11.1228660590        7.9143564447       14.3240439603
  H        11.0529850950        5.7999780850       13.4836691773
  C         4.1661498194        1.6988886309       35.8263926502
  N         4.2427932027        0.4001433385       36.0225488979
  O         4.7844603360       -1.5314981668       34.8400616333
  H         2.9345453521        1.5381520586       17.2880385940
  H         2.9608634325        2.0390848269       19.0118117237
  C         3.2139207245        0.0559140547       18.9150012005
  H        14.8307439101        1.1004251714       23.2450504966
  H        15.7475305993        1.4110015025       21.6922765606
  C        16.0929071761        2.6952565990       23.4583914160
  C        11.3445563259        8.5898712030       13.1498287238
  S         3.8944176556        2.7948438211       37.1980962658
  C         4.2430476306       -0.2044563168       37.3745821325
  H         3.8461016058        0.1247731058       19.8564160612
  H         2.3219836973        0.0466010807       19.5517333307
  C         3.3672879810       -1.1774022543       17.9618533964
  H        15.8016139382        2.5307160910       24.5078750737
  H        15.9289421238        3.7370277158       23.2483301531
  C        17.5761093800        2.3431311196       23.2231873877
  H        10.8135318771        9.5478565701       13.1297365090
  C        11.9090150594        8.3115380201       11.9275484557
  H         3.6457558341        0.3180958287       38.0690200899
  H         3.6701582804       -1.0622171205       37.2196884877
  C         5.6481600371       -0.4370280947       37.9695299657
  H         3.5974975790       -1.9215570266       18.5957332358
  H         4.2414066368       -1.0407996068       17.2768079854
  C         2.0063749996       -1.3655555712       17.3164694133
  H        18.1379860300        2.6553285838       24.1187374128
  H        17.7285450728        1.3299535011       23.1560548098
  C        18.1307252843        3.0465462749       21.9368623229
  S        12.7869580118        6.9607213399       11.4310952957
  C        11.8571476406        9.3571476981       10.8867927994
  H         5.6860255504       -1.3337461925       38.6215966086
  H         6.3449295189       -0.5137703068       37.1468118641
  H         5.9313643438        0.3971354784       38.5798825286
  H         1.3053800677       -1.9560823897       17.9076061126
  H         2.0900741209       -1.8585303700       16.3184458768
  H         1.5167375430       -0.4524066658       17.0724302388
  H        17.8815876000        4.1010363885       21.9642341199
  H        17.6928446027        2.5788973379       21.0717543546
  H        19.1918473745        2.9851491718       21.9223521077
  C        12.9617666885        7.6577034465        9.8911734222
  N        12.4899087315        8.9409444165        9.7651812512
  O        11.1718017671       10.3999237705       11.0057323373
  S        13.6907098206        6.9362249393        8.4727676654
  C        12.2423851976        9.6674786365        8.5466769053
  H        12.2070318388       10.7769785471        8.6524415530
  H        13.1173194253        9.3707939337        7.9348320258
  C        11.0483994325        9.1955486427        7.7888715235
  H        10.3009429758        9.9276905118        7.6904008495
  H        11.4457531235        8.9303499706        6.7671072853
  H        10.6382424873        8.3016290301        8.3119975912
  H        -2.6404812461       15.8703406991       16.4297256997
  C        -2.7511588144       14.7846215112       16.1876539432
  H        -3.8187016692       14.7394768535       16.2023346412
  C        -2.1434871971       13.8019879609       17.1952573129
  C        -2.3181872273       14.3607683308       14.7953367439
  C        -2.6311393833       13.9490623822       18.5911472529
  H        -2.2314105573       12.7497921201       16.8227420495
  H        -1.0116513133       13.8712617557       17.3550318989
  H        -2.8661563958       13.4594539519       14.5237205302
  H        -2.4312511444       15.1544994213       14.0250278464
  H        -1.2827747694       14.2614810706       14.8222680992
  C        -1.4969236758       14.0585115591       19.6277527708
  H        -3.2382208231       13.0490267005       18.8576988160
  H        -3.2166500031       14.8334852090       18.7771313099
  C        -1.9642265608       14.0064845962       21.0810751210
  H        -0.7984098600       13.2448530683       19.5333580362
  H        -1.0061438870       15.0060529386       19.4148560372
  C        -0.9908590076       13.2429254269       22.0186602048
  H        -2.9275532297       13.5001346721       21.1004811887
  H        -2.0717041307       14.9668281187       21.4853564501
  C         0.1854862340       14.1177653023       22.3595755552
  H        -1.4999905177       12.9020064996       22.9364869983
  H        -0.6358842884       12.3466048105       21.5471522927
  C         1.2898595998       13.4319125714       23.1876356866
  H         0.5071468529       14.5382132763       21.3990576250
  H        -0.1139940847       14.9965447300       22.9192583344
  C         1.7169700118       12.1174495945       22.5022137863
  C         0.8336299565       12.7180911152       24.4681595361
  C         2.4548508390       14.3777224793       23.4863567773
  C         1.4585320604       11.0046734520       23.2969779048
  C         2.3347732520       11.7956181270       21.2996333792
  C         0.9026771265       11.3450200305       24.5420685534
  C         0.2794038531       13.3108004426       25.5657879217
  H         2.7329841596       14.9806998577       22.5720261571
  H         2.2689968597       15.1279055573       24.2469065599
  C         3.7207163407       13.6839257318       23.8805792008
  S         2.0767568482        9.6085020578       22.4614903438
  C         2.4327860564       10.4800519496       21.1083806845
  H         2.6244895254       12.5601300044       20.5582961535
  C         0.4605166688       10.7131725463       25.6964382768
  H         0.2191685626       14.3723638521       25.5358238969
  C        -0.0737614246       12.6778677875       26.7376191462
  H         3.9518596999       12.8787549996       23.1782243497
  H         3.5452916842       13.2062889733       24.8728555588
  C         5.0551064919       14.5840928642       24.0301665676
  C         2.8373614152        9.8305440790       19.8306421434
  C        -0.0649158278       11.3419382011       26.8044414353
  H         0.5583713253        9.6605778512       25.7228677838
  C        -0.4587977258       12.9932544212       27.9491864764
  H         5.8588531461       14.0128328302       24.5739179793
  H         4.8262400456       15.4991641302       24.5926313548
  C         5.6116775388       14.9064403465       22.6270183703
  C         2.7333898612        8.4404168626       19.4635531658
  C         3.3395694360       10.6253710722       18.7564767427
  C        -0.4927090543       10.5817617776       28.0321553748
  C        -0.7784406855       11.8845467140       28.7076576436
  S        -0.7177258506       14.5124835756       28.7479208559
  H         6.2621325151       15.8191648209       22.7979206582
  H         4.9011141459       15.1618175785       21.9040001041
  C         6.4258505431       13.6809915013       22.1954569157
  N         2.2780103918        7.3848494505       20.3591490395
  C         3.0219556406        7.8908467752       18.2501048686
  C         3.6553062425       10.0694436245       17.4861146625
  H         3.4395509410       11.6482326734       18.7937097166
  C         0.6262309899        9.8233117955       28.7485562845
  C        -1.7404208141        9.7640673253       27.9006300368
  C        -1.1710380763       12.3038438809       30.0470491219
  C        -1.1228772826       13.6690989230       30.2450259763
  H         7.1603531712       13.4377696567       22.9896013311
  H         5.8542029569       12.7956331190       22.0375076580
  C         7.3389821167       13.8888897324       20.9643720298
  S         2.1051389821        5.9903786363       19.5931825836
  N         2.7985819829        6.4773888677       18.2112319084
  C         3.4835499036        8.6394371466       17.1432548687
  H         3.9310936940       10.7434278909       16.6852443567
  H         0.9854386207        9.0668499979       28.0164992279
  H         0.1770557287        9.3187641708       29.6198497944
  C         1.7719061974       10.7739095778       29.3547613117
  H        -1.5272095898        8.8860230003       27.3953288495
  H        -2.0911588528        9.3767033635       28.8555442159
  C        -2.9209072694       10.4587279860       27.1762942446
  H        -1.5952570403       11.5827315051       30.6869343501
  C        -1.5594769354       14.4632752904       31.4664846545
  H         7.9586961944       13.0620001072       20.7789060189
  H         8.0431786582       14.7154321079       21.1239634788
  C         6.5300018799       14.2561091792       19.7273984493
  C         3.4794961257        7.9519520027       15.8644969200
  H         2.2501250342       11.2852807871       28.5808283246
  H         1.4504301525       11.5222172338       30.1504063337
  C         2.7981583517        9.8516493727       30.1465283416
  H        -2.6248449228       10.8947344677       26.2287215712
  H        -3.4085440740       11.2448390946       27.8026343000
  C        -4.2390624720        9.6428518358       26.9930819073
  C        -1.6088789838       15.8795466293       31.6060617653
  C        -1.8705008444       13.6353687712       32.6525261838
  H         5.6099939726       13.7366052239       19.6195484637
  H         6.3383140078       15.3540819215       19.7352097715
  C         7.3649404386       13.9979290923       18.4951233656
  H         3.3836241593        6.8623369524       15.9358869548
  C         3.8153946262        8.4155642598       14.6118374331
  H         2.7302066332        8.9040096732       29.6053118704
  H         2.4967875837        9.6883381744       31.1799856873
  C         4.2453098465       10.4558603869       30.1423576903
  H        -4.1126446276        8.7578592249       26.4972162650
  H        -4.5873060733        9.3401449551       28.0011809953
  C        -5.2786739698       10.5120992116       26.1763496685
  N        -1.3239109780       16.8399823899       30.6321586912
  C        -2.0907560347       16.4529215864       32.7717535887
  C        -2.1560216897       14.1700623786       33.8429357956
  H        -1.8501612574       12.5938229467       32.5778985138
  H         8.0723311378       14.7729982659       18.2355690844
  H         7.7914843028       13.0223326389       18.6546685011
  H         6.6815692022       13.8943366784       17.5488536403
  S         4.1329921262       10.0672987130       14.0831258023
  C         3.9008346008        7.4259569933       13.5602312366
  H         4.6201172513       10.5736432821       29.1332801032
  H         4.1682041242       11.5063959831       30.5081167587
  C         5.1991029534        9.7231396916       31.1596966823
  H        -4.7331887570       10.9609709248       25.4155768674
  H        -5.7011359596       11.1415879189       27.0611425009
  C        -6.4645735762        9.7823202001       25.4865406479
  S        -1.3600620781       18.3104490430       31.3049236447
  N        -2.1027272752       17.8287600930       32.7037410623
  C        -2.3042127377       15.6576942264       33.9485413939
  H        -2.2693528161       13.4822250934       34.6902290296
  C         4.2345254262        9.3688268724       12.4800208959
  N         4.3148371932        8.0029622506       12.4501528561
  O         3.6899905343        6.2050840517       13.6273294801
  H         5.0522034009       10.0510589737       32.2339314406
  H         6.1844095770       10.1155708207       31.0157097743
  C         5.2395352111        8.1466507412       30.9829245202
  H        -6.2411511241        8.8304797155       24.9054959584
  H        -7.0396274198        9.5119437105       26.3331678829
  C        -7.5318879262       10.6392830730       24.7678447244
  C        -2.4531774556       16.2612670906       35.2549242571
  S         4.7610536213       10.2022291602       11.0497604867
  C         4.5425320081        7.1784522151       11.2589766836
  H         4.2242706853        7.8254474161       31.2647902322
  H         5.4073942354        7.8797744668       29.9444560491
  C         6.2441437986        7.4822519774       31.8691464755
  H        -7.0729144243       11.0797875712       23.9365909535
  H        -7.8860060697       11.5048212270       25.3669881534
  C        -8.7773809650        9.8385937241       24.3929360002
  H        -2.4993975069       17.3366685792       35.2062455535
  C        -2.9857471782       15.7916287117       36.4806548977
  H         5.1333582460        7.7111582372       10.5417828181
  H         4.9246070437        6.1710784694       11.5384812845
  C         3.1790521360        7.1445173938       10.4704887703
  H         6.1763306084        7.8918846998       32.9121690948
  H         7.1942071967        7.9620906261       31.6311735642
  C         6.3346958889        5.9655711140       31.7875500733
  H        -9.3663806033       10.5004707016       23.7566993795
  H        -8.5853630229        8.9461904843       23.8218143306
  C        -9.5887466456        9.5995486279       25.6378238886
  S        -3.5978772374       14.1998528646       36.9372956731
  C        -3.0207522890       16.7143471069       37.6080133726
  H         2.3113544952        7.2825476422       11.1813789450
  H         3.1700852576        7.9356846225        9.7062076650
  H         3.0426451512        6.2474379109        9.9115797085
  H         7.2186969636        5.6880056351       31.2576318893
  H         5.4961792284        5.6235033723       31.1870435033
  H         6.3975632976        5.4860281756       32.8003551512
  H        -9.1657301446        8.9390158926       26.3676476082
  H       -10.5337666613        9.2511167162       25.4100374704
  H        -9.8070657776       10.5228814786       26.1366716297
  C        -4.0571131829       14.8939706365       38.5044919322
  N        -3.6511366899       16.1807090875       38.6931164787
  O        -2.5806116993       17.8520292048       37.5978520181
  S        -4.8783276478       14.0060232914       39.8284688218
  C        -3.8506024467       16.9211924331       39.9206884723
  H        -4.6189909846       17.7029023918       39.7822020207
  H        -4.2027671493       16.3536197530       40.7229183495
  C        -2.5892377216       17.6552221475       40.4545300804
  H        -2.5150115934       18.7510457842       40.2629824991
  H        -2.3198341720       17.5098588310       41.5328764734
  H        -1.6704721769       17.2245435458       40.0066398036
