352
 i =    36800, time =    36800.000, E =        25.3271468560
  H        11.2847121651        7.3506753036       32.6995037180
  C        11.2765085792        6.2764835598       32.4013830412
  H        12.0769016994        6.1572273695       31.7149537921
  C        10.0834197148        5.9027213770       31.5460267292
  C        11.4335878394        5.3887841137       33.6426536337
  C        10.0357037855        6.5980115715       30.1683243693
  H        10.0704337937        4.8233792434       31.3879477093
  H         9.1722668201        6.1019337019       32.1202171809
  H        12.1308836557        5.8634698911       34.2921668566
  H        10.4986583369        5.3788389636       34.1800655317
  H        11.8141602653        4.4164997054       33.4868206943
  C         9.8764778310        5.5492374402       29.1194972598
  H        10.9618522291        7.0568095121       29.9153524064
  H         9.1850481670        7.2637634679       30.2784817036
  C        10.4064640949        5.8392551945       27.7613634634
  H        10.4257601299        4.6554116882       29.3657565464
  H         8.8814836485        5.3246651353       29.0296070714
  C         9.4191408670        5.2283357316       26.7378762043
  H        11.4260405263        5.3565811211       27.8525482086
  H        10.4923393777        6.9642266929       27.5776458271
  C         8.1044164330        6.0293124471       26.4623754958
  H         9.8294582754        5.0943679317       25.7306284507
  H         9.2524306476        4.2260575964       27.0761445947
  C         7.0100706380        5.3542070007       25.6593122205
  H         7.6230954658        6.4161688508       27.3566472707
  H         8.4551073130        6.8354378040       25.7783161175
  C         6.7484230738        4.0150749329       26.3251419155
  C         7.5250535658        4.5823819604       24.4257213479
  C         5.7003532293        6.1616545224       25.5215730362
  C         7.0772479603        2.8795968562       25.6254585665
  C         6.3028613977        3.6739662639       27.5790695305
  C         7.4928722504        3.2393584289       24.3690922481
  C         7.9885632952        5.2367181876       23.3448244739
  H         5.8631940223        6.9441841029       24.8261879200
  H         5.5197979327        6.7191435532       26.4143727007
  C         4.4749228206        5.3811314404       25.1154143676
  S         6.8421299677        1.4504048061       26.4875643111
  C         6.2804956184        2.3391263708       27.8539207964
  H         6.0287614314        4.4499941833       28.2882721806
  C         7.8397880130        2.5926872838       23.2045101294
  H         8.1067689309        6.3043453865       23.4236173328
  C         8.3701182904        4.6026271117       22.1853768369
  H         4.6916608796        5.0550226705       24.0736832753
  H         4.3365891706        4.4706980836       25.7123745105
  C         3.1435770804        6.2184350111       25.1268190266
  C         5.8776099439        1.6524220219       29.1409082873
  C         8.2582544707        3.2673290605       22.0406113490
  H         7.7838907120        1.5524481458       23.0753951325
  C         8.8484010815        4.9581043795       20.9606334005
  H         2.4359462708        5.6875389264       24.5095526768
  H         3.2266173608        7.2183734963       24.6611300405
  C         2.5744064342        6.3650626490       26.5913164730
  C         5.9172929878        0.2377903402       29.4345551107
  C         5.4954026769        2.5496493886       30.2497284652
  C         8.5449226671        2.5334075299       20.7427697837
  C         8.9474812775        3.8661421041       20.1015016985
  S         9.2946804137        6.4405512256       20.2040548403
  H         1.5746923417        6.7384674335       26.5205441016
  H         3.2144583938        7.0695888207       27.0731853237
  C         2.4371813878        5.1149194142       27.4546774297
  N         6.1930852151       -0.7348910039       28.4916285305
  C         5.6186067880       -0.3617818188       30.6841204206
  C         5.1683720917        1.9424418401       31.4493162137
  H         5.2529179138        3.5750534239       30.0904590899
  C         7.3661495155        1.8795702490       20.0315152536
  C         9.7530692529        1.5539049400       20.7761289685
  C         9.3022526044        4.2672564586       18.8227323072
  C         9.4631159613        5.6125819310       18.6800037647
  H         2.3407762098        4.4035829206       26.6171832003
  H         3.2606466591        4.8488087789       28.0701748212
  C         1.2973599034        5.0924281258       28.4215913897
  S         6.1323612121       -2.1920208969       29.1541952186
  N         5.5493840152       -1.7656744540       30.6062010567
  C         5.3914032193        0.4633453005       31.8270520102
  H         4.8417263113        2.5562858442       32.1989433784
  H         7.0428693241        1.0039475126       20.6421835921
  H         7.6585184082        1.3026716777       19.1049018207
  C         6.3128869404        2.9508014686       19.6264730170
  H        10.0232978502        1.2335250737       19.7949985810
  H         9.4210315145        0.7326842015       21.4061625486
  C        11.0110804059        2.3143348629       21.2288925796
  H         9.2326936016        3.4180829313       18.1123025140
  C         9.7978547393        6.2821439079       17.3786991961
  H         1.4270253497        4.0099001687       28.7579657589
  H         0.3637254775        5.2487732229       27.8972343249
  C         1.4929480011        6.1741880460       29.4779298994
  C         5.1339196231       -0.1976432411       33.0528729478
  H         6.6741337284        3.4202750711       18.7119123126
  H         6.2821174526        3.7839653039       20.2670345692
  C         4.9440459745        2.3279054458       19.5067585723
  H        11.0364288972        2.7571970774       22.2512634747
  H        11.2619858909        3.0609894912       20.5102730221
  C        12.1760264423        1.3506096602       21.2130546564
  C         9.8781551744        7.6990176878       17.1440139806
  C         9.7930742833        5.4295284202       16.2024911149
  H         2.5275018511        6.6128545287       29.3733529540
  H         0.7631396076        6.9225066328       29.3815156748
  C         1.3692105905        5.6042623439       30.8756390488
  H         5.3078348053       -1.2364444776       32.9415947479
  C         4.6759228625        0.2061902401       34.3023660513
  H         4.3729488724        2.7112308508       20.3630340946
  H         5.0204408474        1.2392299635       19.6918995635
  C         4.1248144581        2.6263814557       18.2598634625
  H        12.1977822568        0.8073467082       22.1802424018
  H        12.1146951230        0.5276438072       20.4674839373
  C        13.5056032729        2.0085798916       20.9883290091
  N         9.7225208462        8.6513103130       18.1672418586
  C        10.0869146549        8.2012596934       15.8850510061
  C         9.9856917363        5.9236945333       14.9083811330
  H         9.5613146844        4.3560475597       16.3090041658
  H         0.5090175989        4.9133681677       30.9172746727
  H         2.2274405175        5.0989593104       31.2703027343
  H         1.2338585804        6.4246431212       31.5599587621
  S         4.3477126555        1.8493256675       34.7712912040
  C         4.6788475529       -0.8203029671       35.3098998064
  H         3.8348380479        3.6482612215       18.3516923816
  H         4.7912759563        2.5245945926       17.3533042445
  C         2.8508665519        1.7608922381       18.1968479000
  H        13.4673645685        2.8736826799       20.3441337426
  H        14.0964230414        1.2549466914       20.4836810596
  C        14.1677842972        2.5093719665       22.2458125269
  S         9.7950564745       10.1157576923       17.3448319578
  N        10.1293690330        9.6106704768       15.8694145261
  C        10.1482537923        7.4118640043       14.7206986498
  H        10.0769479499        5.1848440216       14.1179342020
  C         4.0606067321        1.0880524195       36.3673064167
  N         4.1229207161       -0.2640952388       36.4223246040
  O         4.9035000132       -2.0539839003       35.1290047569
  H         2.1862151955        2.0063223517       17.3930098099
  H         2.2623427369        2.0714163911       19.0362461560
  C         3.0791518465        0.2532679900       18.1550710768
  H        14.6390584687        3.4271715402       21.9587729943
  H        13.3957028196        2.6439444262       22.9852760211
  C        15.1340574742        1.3968260668       22.7522858409
  C        10.4637241647        8.1183043251       13.4506421101
  S         3.5931616792        1.9273637404       37.7646037550
  C         4.1438877561       -1.1297405444       37.6222375038
  H         4.1206156206        0.0455642209       17.7157435705
  H         3.0166109488       -0.1598508309       19.1603553794
  C         2.0173747284       -0.4392051949       17.2540904439
  H        15.5568584943        0.8602661466       21.9289174404
  H        14.5508067191        0.7564898340       23.3892818433
  C        16.3717055272        1.9360776586       23.5119001835
  H        10.1365553694        9.1109031789       13.4252946539
  C        11.0586215796        7.7581390338       12.2920900855
  H         3.6065386454       -0.6563570567       38.4814220765
  H         3.5293147702       -2.0164434905       37.3919687338
  C         5.5471688649       -1.3561455953       38.2239519809
  H         2.0042603314       -0.0576815410       16.2182675407
  H         1.1139445302       -0.0250508034       17.6899168643
  C         2.2346815013       -1.9666695647       17.3406695122
  H        16.0247089783        2.8843006294       23.9809291924
  H        16.7039165362        1.2582218213       24.3789017796
  C        17.6281715114        2.1585246478       22.6713204770
  S        11.6639829563        6.1661519512       11.9983836474
  C        11.1421256407        8.7130500747       11.1553248678
  H         5.4685730391       -1.9618781021       39.0742719874
  H         6.1516015979       -1.9281637750       37.5733614003
  H         6.1357803321       -0.4200880980       38.3159071411
  H         2.9964464210       -2.2187396262       16.5836448682
  H         1.3382944715       -2.4728167856       17.1590387338
  H         2.5326317968       -2.1521414700       18.3520930588
  H        18.4811586738        2.1294296786       23.3373970086
  H        17.5151755459        2.9840622911       21.9486190281
  H        17.8377231281        1.3649108547       21.9644396179
  C        11.9185845376        6.7663214099       10.3513322469
  N        11.7286164490        8.1077923429       10.1406688561
  O        10.7702113796        9.9131146035       11.2465797413
  S        12.7933346631        5.7814164055        9.0960708350
  C        11.9279667210        8.7899716444        8.8652645569
  H        12.0309408899        9.8723072301        9.0612912089
  H        12.9222399816        8.4241415320        8.5557811955
  C        10.7996231746        8.6915489289        7.8706926891
  H        10.8268312450        9.5869582348        7.2534524863
  H        11.0417606063        7.9273605540        7.1640901847
  H         9.8228819331        8.4625215227        8.2460417956
  H        -3.7544772177       14.1874318194       16.5539310949
  C        -2.8605288990       13.6423076208       16.3432453339
  H        -3.1412304839       12.5977835615       16.4776374717
  C        -1.7588245305       13.9630307623       17.2392345224
  C        -2.7131312054       13.7566793971       14.8532652788
  C        -1.9505273599       13.2377435309       18.6237612204
  H        -0.8765285875       13.4920790910       16.7907250120
  H        -1.6731878071       15.0598948596       17.3023041695
  H        -2.0164813199       14.5364168260       14.6170307655
  H        -2.5027807376       12.8962257617       14.2659283749
  H        -3.7249183412       13.9562037144       14.5037412070
  C        -1.1744993193       13.7556940457       19.8257422237
  H        -1.6723029523       12.1908548545       18.4957213644
  H        -2.9920208731       13.1067125187       18.8034019204
  C        -1.9070555259       13.3375405021       21.0604765050
  H        -0.2140258642       13.2092717324       19.8362914947
  H        -0.9696950742       14.8296981158       19.6562450468
  C        -1.0951092718       13.1973778704       22.3605665943
  H        -2.5487335648       12.4513473608       20.8253120711
  H        -2.7377786357       14.0802786464       21.1873025508
  C         0.0929027825       14.0390614645       22.6091548637
  H        -1.7763476129       13.4858718540       23.1947502372
  H        -0.9363233560       12.1190003297       22.4972444184
  C         1.1439915503       13.1644344877       23.3068967407
  H         0.4886283072       14.3250350695       21.6217952096
  H        -0.3443921827       14.9186423513       23.1509986554
  C         1.5112834464       11.9119902583       22.6400318655
  C         0.7241701970       12.5106961478       24.5618957307
  C         2.4550885708       13.9474098976       23.6729019850
  C         1.1557342313       10.8445690645       23.4204812584
  C         2.1238726914       11.5355114385       21.4075963037
  C         0.7537913853       11.2086819650       24.6996863376
  C         0.3428998399       13.1718097509       25.7390929712
  H         2.5813679669       14.6582056673       22.8718591417
  H         2.1620266450       14.5178006531       24.5135088855
  C         3.7537745013       13.1564524493       24.0294931269
  S         1.6436885738        9.3746388130       22.6613293780
  C         2.1586034550       10.1738933581       21.2035635026
  H         2.3429452815       12.3328740686       20.7078078934
  C         0.4191515000       10.6424700677       25.9240814725
  H         0.0476442059       14.2002641199       25.5799805533
  C         0.0552584326       12.6240114262       26.9424489098
  H         3.8695866987       12.3132448962       23.4102934721
  H         3.6748481108       12.6204956827       24.9905855442
  C         4.9536655690       14.0869810330       24.1865954802
  C         2.5665977731        9.4295914427       19.9480319482
  C         0.0104743704       11.3022948607       27.0763197048
  H         0.6562246906        9.5767759783       26.0712397588
  C        -0.3683563789       12.9523589202       28.2228017383
  H         5.6442086131       13.6704746498       24.9956402606
  H         4.6414088632       14.9688532598       24.7527765219
  C         5.6622290513       14.4399818025       22.9161084522
  C         2.5835125749        8.0319050538       19.7629594584
  C         2.9104511870       10.2711334847       18.7532748268
  C        -0.5047580344       10.5529693287       28.3156788075
  C        -0.8452617688       11.8799749298       28.9581150309
  S        -0.6699292767       14.4725832020       29.0396106484
  H         6.3914052213       15.1994505907       23.1417517118
  H         4.9697011511       14.7610021942       22.1048418832
  C         6.3775269559       13.3084301259       22.2709388244
  N         2.3804645339        7.1005732302       20.7889006995
  C         2.7188761058        7.4870543373       18.5615105185
  C         3.1584311416        9.6703385049       17.5694908783
  H         3.0652658843       11.2766753035       18.8481646935
  C         0.6010242527        9.7232897263       29.0445765218
  C        -1.6566634276        9.6391689407       28.0012276126
  C        -1.2805034020       12.2300639374       30.2421662409
  C        -1.1985108586       13.5809493811       30.4649492427
  H         7.0251206633       12.8906301441       23.0383090099
  H         5.6731528760       12.4535413486       22.1409950089
  C         7.3168577280       13.5222076717       21.0682737738
  S         2.4542669588        5.5950408431       20.1442598725
  N         2.5095661972        6.0666883413       18.6014302213
  C         3.0387054522        8.1596886019       17.3829967194
  H         3.4094400876       10.2969985729       16.7033485945
  H         0.9504129477        8.9426327435       28.3661244675
  H         0.0811750179        9.3557968511       29.9345823759
  C         1.9370580238       10.4807529901       29.4515279781
  H        -1.4768490861        8.8376813247       27.2952285281
  H        -1.8765767584        9.1120573450       28.8573528039
  C        -2.9419455941       10.3856455076       27.4675133436
  H        -1.5682604678       11.4185979665       30.8914355068
  C        -1.5466611435       14.3193057529       31.7613276215
  H         7.7376329265       12.6257144705       20.8162396771
  H         8.2366284840       14.0410821983       21.2213993297
  C         6.5962500599       14.1298413432       19.8771039051
  C         3.3059072271        7.5394208943       16.1404857577
  H         2.4167859820       10.7740567847       28.5536217412
  H         1.7446203210       11.3138495386       30.0800247493
  C         3.0757354445        9.5410562267       30.1020315820
  H        -2.7526108503       10.9259829038       26.6153252716
  H        -3.3104767111       10.9808065013       28.2369540901
  C        -3.9824125875        9.4275412383       27.0763458587
  C        -1.5959235877       15.7110000675       32.0092112132
  C        -1.9058621872       13.4945753019       32.9765821247
  H         6.1252124652       15.0501620216       20.1888828248
  H         7.4042007192       14.4131084246       19.2278178848
  C         5.6243470104       13.2234369852       19.2663442873
  H         3.1761522947        6.4878332913       16.2522010546
  C         3.4867443520        7.9405922302       14.8279080409
  H         3.2143948097        8.8073140913       29.3430966973
  H         2.6454850256        8.9111403272       30.9607869689
  C         4.3294169818       10.3268021873       30.6489296990
  H        -3.4449861988        8.6247634609       26.5417429656
  H        -4.4186238608        8.9975921578       28.0044232814
  C        -5.0083510892       10.0893382920       26.1311632524
  N        -1.1751592946       16.6870905622       31.0946797303
  C        -2.0563053922       16.3003301702       33.2216215447
  C        -2.2920900252       14.0482508286       34.1931366201
  H        -1.8118090946       12.4379767062       32.8275910307
  H         6.1088099168       12.8289151819       18.3890096901
  H         5.4771530571       12.3921256607       19.8681421191
  H         4.7311010664       13.7257958705       18.9287463847
  S         3.6623285658        9.5576265462       14.2557852969
  C         3.5412917373        6.9071092217       13.8149770655
  H         4.4047853457       11.3078309770       30.2282022444
  H         4.1675704831       10.4654652022       31.7262338987
  C         5.6882231108        9.5912518646       30.4179520828
  H        -4.9826188463        9.5244591249       25.1616698991
  H        -4.7317918979       11.0717727138       25.7219086269
  C        -6.3268964740       10.3487151178       26.8263399957
  S        -1.4210361972       18.1417381598       31.7630827437
  N        -2.0128253861       17.6876516635       33.2111456549
  C        -2.4838998754       15.5475415340       34.3158751929
  H        -2.5619042988       13.3360498446       34.9688962754
  C         3.7923236170        8.8421160717       12.6700996839
  N         3.7395095584        7.5207380515       12.6302812558
  O         3.5316721537        5.6925496006       14.0570092391
  H         6.5550530060       10.2559569985       30.5840686917
  H         5.7961049826        9.1809162521       29.3660189002
  C         5.8653081499        8.3756083121       31.3106479118
  H        -6.8219137565        9.3962602581       27.1426342566
  H        -6.1247831924       11.1098333474       27.6454416513
  C        -7.2557197396       11.1511217554       25.8523131833
  C        -2.8596692918       16.1952901104       35.5242526000
  S         4.2304305116        9.7141245991       11.2652437493
  C         3.8635505929        6.7153298611       11.3345411910
  H         6.7544504826        8.6134179640       31.9128756627
  H         5.0321409607        8.3328199123       31.9115772087
  C         6.0199073757        7.0331418609       30.5133784524
  H        -6.7812833204       11.5091460106       24.9554828544
  H        -7.7405247925       11.9112998701       26.4221152298
  C        -8.3844448602       10.1667966022       25.3320755719
  H        -2.7453717371       17.1970748774       35.6520962378
  C        -3.2899336422       15.7301005211       36.7504992232
  H         4.6172563477        7.0388752973       10.6292095973
  H         4.1367182258        5.7232143761       11.5985224932
  C         2.5178504721        6.6492564522       10.6118951597
  H         6.9012028920        7.0648459711       29.8547535843
  H         5.1017272467        6.8012128924       29.9281351998
  C         6.1388129435        5.9659858252       31.6465082689
  H        -8.7060021806       10.4297713502       24.3073018564
  H        -8.0225110702        9.2221207548       25.3534685008
  C        -9.5191531860       10.3147091047       26.3524367701
  S        -3.6644853303       14.1352953466       37.0576440724
  C        -3.4854845345       16.7176473333       37.8569396993
  H         2.6470954570        6.0588559329        9.6889064269
  H         1.6581444782        6.1076907669       11.1335876997
  H         2.2351978236        7.6433704200       10.1669218502
  H         6.9330056308        5.1844143987       31.3913213178
  H         5.1445817975        5.5487113316       31.8231704713
  H         6.4341405942        6.4412764293       32.6112328864
  H       -10.2751085619        9.4780795192       26.3180256741
  H       -10.0425494868       11.1839009884       26.3251208852
  H        -9.1509994662       10.3403272946       27.3288757516
  C        -4.1641914293       14.6781425318       38.6935981334
  N        -4.0171365059       16.0740771551       38.9279719141
  O        -3.3727582659       17.9167841322       37.7092494648
  S        -4.7908605526       13.7204771690       40.0233619890
  C        -4.3606625416       16.8769751029       40.0713400434
  H        -4.6941552238       17.8422381038       39.6678745123
  H        -5.1509637625       16.5028613502       40.7159600547
  C        -3.1125485227       17.0836701576       40.9190624603
  H        -3.0294637031       18.0755193504       41.2774320286
  H        -2.9931092991       16.4275239749       41.7837442644
  H        -2.2232485555       16.8617139276       40.3579416367
