352
 i =     2500, time =     2500.000, E =        42.9218328634
  H        11.9426911673        6.9648496387       32.3958449114
  C        11.6222084693        5.9703964921       32.3093329732
  H        12.4955360937        5.3197204569       32.1045787361
  C        10.6631642823        5.7889799994       31.1798584053
  C        10.9092886953        5.4842020896       33.5558341537
  C        11.3482669774        5.5893497204       29.8181981824
  H         9.7793873498        5.1748025212       31.3411984930
  H        10.1985836892        6.7538861023       30.9174574470
  H        10.3417945374        4.5887505639       33.5463202423
  H        11.5920787408        5.4343408171       34.3646198583
  H        10.1310831232        6.1792777859       33.8779064857
  C        10.2862008942        5.2560422576       28.7743815467
  H        12.1727730947        4.8574948990       29.9252374080
  H        11.6613929932        6.5970823041       29.4928903878
  C        10.9078392922        5.2569452019       27.3298488609
  H         9.9926823295        4.3342903381       29.1829733746
  H         9.4777124634        5.9208867525       28.9048964024
  C         9.8830061732        4.7070699062       26.3879913796
  H        11.8425246200        4.7585175421       27.1457674654
  H        11.1267507605        6.3021348600       27.0031236333
  C         8.7009911071        5.6772045047       26.0472184395
  H        10.4598155874        4.3324220170       25.5341566170
  H         9.7183574359        3.7720259814       26.8492013819
  C         7.4882512359        5.0547879059       25.3925216684
  H         8.4709139637        6.0750128127       26.9733735118
  H         9.0883007470        6.4983831730       25.5792368388
  C         7.0893527262        3.7180231461       26.0638744842
  C         7.8570112215        4.3870824663       24.1317708209
  C         6.3382752957        6.1233708871       25.2227370097
  C         7.2754164820        2.6079714249       25.2719465552
  C         6.5223597100        3.3270581237       27.3084266415
  C         7.7222696528        3.0021254796       24.0732281797
  C         8.4414237322        5.0204338743       23.0183487231
  H         6.7187667498        6.9724707829       24.7962972261
  H         5.9971807137        6.3933391297       26.1903332508
  C         5.3000584630        5.6013082384       24.3297386661
  S         6.8030545805        1.1107371487       25.9931064756
  C         6.3459336909        1.9453599196       27.4373718164
  H         6.2355917389        4.0248917491       28.0546325686
  C         8.0720907448        2.3739925079       22.9165271280
  H         8.4809898302        6.0966422429       23.0015841407
  C         8.5805701844        4.4077165641       21.8679769276
  H         5.5013819026        5.6655349286       23.2299424029
  H         5.1416161572        4.5761370886       24.4691909084
  C         3.9886090588        6.4439486454       24.2966392603
  C         6.0028351268        1.3004269131       28.7801325887
  C         8.4559827943        3.0427626620       21.7477637505
  H         8.0992079189        1.3717170769       22.9922051039
  C         8.9356548850        4.7620368061       20.5987585986
  H         3.3742157322        5.9936772109       23.4470984802
  H         3.8737123993        7.5809229823       24.0522301566
  C         3.1133271342        6.4755957585       25.5624622525
  C         6.0635154470       -0.0842524569       29.0294005807
  C         5.5824291407        2.0789644746       29.9531271844
  C         8.7767647409        2.2860835564       20.4361312281
  C         9.0527442337        3.7136245221       19.7582667252
  S         9.2356086285        6.2659130032       19.8191397034
  H         2.3003575948        7.0304740878       25.1313175367
  H         3.6816045206        7.0014163582       26.3120684910
  C         2.6499758964        5.1111235514       26.0201548104
  N         6.4125130400       -1.0277203470       28.0101116568
  C         5.7643932198       -0.7213183949       30.2368230678
  C         5.2909699252        1.4778104747       31.1745767860
  H         5.5532199879        3.1453269686       29.9396748282
  C         7.5105142291        1.5859255738       19.8539888275
  C        10.0171806775        1.3663994827       20.6396546437
  C         9.3256906511        4.1055128817       18.4322641482
  C         9.4863006624        5.4653100261       18.2751404553
  H         1.7301414883        4.8334199187       25.4222865654
  H         3.2946991661        4.2337416536       25.8337082953
  C         2.1341179417        5.1178240050       27.4634552938
  S         6.3694648245       -2.5536112014       28.6606105793
  N         5.8897550204       -2.1282682396       30.1415217854
  C         5.4147844693       -0.0136210792       31.3862020643
  H         4.6800480576        1.9976959001       31.8241548442
  H         6.9131001064        1.4002660208       20.7179175135
  H         7.7765570681        0.6436316913       19.4137109306
  C         6.5471922495        2.3241140316       18.9494240701
  H        10.1822363965        0.6456471071       19.8493429726
  H         9.6850942045        0.7251668705       21.3886035969
  C        11.2879376613        2.1754739546       20.9496353857
  H         9.4762542706        3.3755431360       17.6211258161
  C         9.8436319913        6.2149716173       17.0098465995
  H         1.3647707358        4.3381717636       27.4984093470
  H         1.3931940316        5.9323803183       27.5727454389
  C         3.1879425806        5.1364296162       28.5883971260
  C         5.1474755804       -0.6698524306       32.6321178482
  H         6.9936206398        2.5122131694       17.9478709063
  H         6.2781397545        3.3521140598       19.2302326424
  C         5.3779977971        1.4934141216       18.4933424122
  H        11.0212494755        2.6560819217       21.8207956189
  H        11.4626169326        2.9220424270       20.1595714238
  C        12.5968176397        1.4049370793       21.2213138820
  C         9.8350052693        7.6267307855       16.8272285257
  C        10.1891882309        5.4220372155       15.7843033575
  H         3.6148762888        4.1767605606       28.7851438377
  H         3.9786261845        5.8498578407       28.2531768733
  C         2.4362964068        5.5079088774       29.9079666193
  H         5.3752870512       -1.6577938565       32.5690415785
  C         4.8473482781       -0.3254566976       33.9326834434
  H         4.9397525210        0.7652540838       19.2525476942
  H         5.7673112412        0.8333828227       17.6793068003
  C         4.1773485598        2.1109525290       17.7663697603
  H        12.5219954152        0.3630570230       21.5531851983
  H        13.0802720704        1.4369767652       20.2796797633
  C        13.4773741843        2.1328224599       22.2580769907
  N         9.5004259088        8.5594831135       17.8220922583
  C        10.2555530801        8.2426302260       15.6936576910
  C        10.4306182362        6.0975961004       14.6643652938
  H        10.3924472814        4.3119871847       15.8652471766
  H         3.0081469125        5.3304004706       30.7119382441
  H         2.1896253792        6.6261156900       29.9672302637
  H         1.5306345382        4.7896383870       30.1598964527
  S         4.4830456367        1.2384274048       34.5553405024
  C         4.6775815317       -1.3941020191       34.9675690984
  H         3.9370078044        3.1700313501       18.0118093332
  H         4.4876516735        2.0801860698       16.7273332342
  C         2.9755852422        1.1851074200       17.9984908375
  H        12.9085512491        2.5638421014       23.0960003816
  H        13.9555155095        2.9866599009       21.7914048037
  C        14.6074715328        1.2159514901       22.7033975206
  S         9.7826126194       10.0716004876       17.2869304195
  N        10.2476413928        9.6518962353       15.8059915452
  C        10.5746669042        7.5421335836       14.4760109176
  H        10.7690282611        5.5373799572       13.8657317711
  C         4.1835315058        0.5434272488       36.0798261460
  N         4.3046941738       -0.8269562090       36.1500478305
  O         5.0194607720       -2.5984496806       34.8223442861
  H         1.9192855089        1.6529695106       17.8275113853
  H         2.9742798752        0.9255598547       19.0321523806
  C         2.8911692420       -0.0236513504       17.0428025206
  H        14.1588096435        0.3596085450       23.2721129295
  H        15.0761240519        0.8901795165       21.7871312623
  C        15.4246162776        2.1492284205       23.6214468833
  C        10.9507425210        8.2444608748       13.3019633233
  S         3.8231828342        1.2885473160       37.6129122286
  C         4.3210826302       -1.7085969584       37.3885055488
  H         2.0847790689        0.1422259692       16.2586346744
  H         3.9759017841       -0.2814706840       16.6392645349
  C         2.5090924338       -1.3384743566       17.8018131918
  H        15.4571364813        1.6079265574       24.6016425404
  H        14.9269619064        3.1863668272       23.7303020643
  C        16.9678504605        2.0170343196       23.2573113380
  H        10.2534449315        9.1469196805       13.3312134412
  C        11.4603535245        7.9483853364       12.1073981936
  H         3.5281368279       -1.4687347409       38.0886646544
  H         4.2068295667       -2.6904815375       37.0246129567
  C         5.6639508627       -1.6674619902       38.2156268331
  H         1.8857399756       -1.1363580267       18.6223474748
  H         3.3429256244       -1.8206397877       18.1240382510
  C         1.7221668119       -2.2458505375       16.7446577123
  H        17.6497858317        2.2329545368       24.0155034648
  H        17.0455385932        1.0124613153       23.0234950200
  C        17.3548186013        2.9694722930       22.0730780447
  S        12.0390388994        6.3739861142       11.7303131223
  C        11.3169647755        8.8491484422       10.9409173223
  H         5.7271445988       -2.7098181062       38.5603530084
  H         6.5480154222       -1.5052589745       37.6696648143
  H         5.6098938851       -1.0686499242       39.1021982371
  H         0.6136204498       -1.9292850922       16.7004039683
  H         1.8114284349       -3.3378124358       17.0944391198
  H         2.2152495213       -2.0986605107       15.6974174663
  H        16.9069999853        2.5494751901       21.2116837810
  H        18.5040574617        3.1196195948       21.8556702894
  H        16.8439133681        3.9887508925       22.3002094050
  C        12.3920131731        6.9964441513       10.1126378452
  N        11.9795611121        8.2694468469        9.8444747699
  O        10.8130540324        9.9868122274       10.8519200213
  S        13.1006787656        6.0591413149        8.8160834723
  C        12.0548013241        9.0702424764        8.6036184607
  H        12.5083316899       10.0973012457        8.7153559620
  H        12.6060038336        8.5472859633        7.7607037032
  C        10.7038485131        9.3301450822        7.9955958009
  H        10.4142238586        8.3856286709        7.5511725299
  H        10.1081551109        9.8588219841        8.6711027463
  H        10.6754570455        9.9724260416        7.1479975344
  H        -3.0664031678       15.4954151588       16.7729828201
  C        -3.1120060901       14.3890653110       16.8471087006
  H        -4.1101478802       14.1602618279       17.1395280367
  C        -2.0321000768       13.8675085755       17.8409995902
  C        -2.9942038991       13.7519588045       15.4464295167
  C        -2.5111526195       14.2387512354       19.2989991303
  H        -1.9210793041       12.8402926922       17.8944118414
  H        -1.0529512521       14.2826192160       17.6782203839
  H        -3.4524766688       12.7660456562       15.4859206647
  H        -3.6183310124       14.1880479061       14.6635833833
  H        -2.0524272567       13.7613838363       15.1067166911
  C        -1.8717351509       13.2433046547       20.2296913369
  H        -3.5968271557       13.9065707300       19.3511396289
  H        -2.2669858569       15.2882969430       19.6642540452
  C        -2.2847539313       13.5179327813       21.6657424995
  H        -2.2835173456       12.2913603536       20.0530709831
  H        -0.8181733537       13.2791718898       20.0604149007
  C        -1.2337482950       13.0154834780       22.5959943029
  H        -3.2537439726       13.0667048045       21.7234912047
  H        -2.4862704545       14.5616371011       21.7492245701
  C         0.0918418862       13.8156318332       22.6839435803
  H        -1.5464755544       12.8825243795       23.6016546178
  H        -1.0771091085       12.0072971274       22.2864812964
  C         1.2636387342       13.0961901375       23.3587741794
  H         0.5194818482       14.2151818849       21.7804379423
  H        -0.0393158064       14.5940306985       23.3677874767
  C         1.6036605318       11.8220183186       22.6381246342
  C         0.8110475532       12.3981398254       24.5858979541
  C         2.5145853254       14.0072838531       23.5740371279
  C         1.2341732618       10.7406861543       23.3873886298
  C         1.9919690872       11.4952245713       21.3785774237
  C         0.7703276144       11.0861038502       24.6422932701
  C         0.3135408308       13.0665234849       25.6936288915
  H         2.8404605952       14.5004156683       22.6839721602
  H         2.4672863760       14.9181283354       24.2101176123
  C         3.7674754125       13.2518060615       24.0047123067
  S         1.3986101593        9.2466464580       22.5876725888
  C         2.1458337489       10.1166101366       21.2796259348
  H         2.2477114510       12.2430698006       20.6912194726
  C         0.3828888544       10.4138622653       25.7665122533
  H         0.2258070845       14.0984904662       25.7453532202
  C        -0.1281132664       12.4647456723       26.8218703634
  H         4.0267763655       12.4566580912       23.3410063388
  H         3.6459205990       12.6890842466       24.9364584729
  C         5.0004485848       14.0664912336       23.9980713471
  C         2.4818001624        9.3965422022       19.9317689142
  C        -0.0920187933       11.0932915553       26.9060840160
  H         0.4347019429        9.4357937507       25.7094994747
  C        -0.5391487280       12.7998036969       28.0696376752
  H         5.6815561773       13.4296496019       24.4340838230
  H         4.9599517864       14.9536245539       24.7351013131
  C         5.5315756729       14.3655986589       22.6333612934
  C         2.4835285343        8.0712376995       19.7580529808
  C         2.9838464035       10.2282604707       18.8253436251
  C        -0.4857355171       10.2967283189       28.0893815044
  C        -0.7173560463       11.6403423285       28.8864995636
  S        -0.7817834309       14.2191874046       29.0895234241
  H         6.3621564952       15.1196918092       22.7929064134
  H         4.8994532657       15.0115319567       22.0659062178
  C         6.2388944434       13.2212090323       21.8526236139
  N         2.2385963733        7.0537250415       20.7874552743
  C         2.9277426259        7.4823950584       18.5554550556
  C         3.1948948691        9.7272486141       17.5806863788
  H         2.9813978168       11.2197832551       18.9843451967
  C         0.6696045479        9.3298304679       28.6745896965
  C        -1.8096591942        9.5176171573       27.8208703110
  C        -1.0908949556       11.8878313097       30.2722770472
  C        -1.2538685234       13.2553256398       30.4609759481
  H         6.8578433568       12.6835969372       22.6339844639
  H         5.5110149093       12.4471673191       21.5806514423
  C         7.0013881815       13.7736819364       20.6516410917
  S         2.4224537183        5.5758047583       20.0515020109
  N         2.9337133051        6.0794169856       18.6271458065
  C         3.1558687873        8.2563676564       17.3957542375
  H         3.4025576804       10.3883889143       16.7150971481
  H         0.8265559563        8.4501433686       27.9676781243
  H         0.3889008625        8.7081617409       29.5911166980
  C         2.0469343532       10.1220444141       28.8885975203
  H        -1.6335061192        8.6157688700       27.2264772708
  H        -2.1911458896        9.0941053386       28.8088951446
  C        -2.8841329264       10.3740069591       27.2777467036
  H        -1.3289803415       11.0286231077       30.9143231571
  C        -1.6989744327       13.9262657247       31.7817349570
  H         7.8145544339       13.0973322776       20.4965223338
  H         7.4967538773       14.7503670040       20.7490869462
  C         6.1607807416       13.5605077970       19.3993003728
  C         3.3139970397        7.5604311779       16.1938532811
  H         2.5123581495       10.5396555726       27.9261817146
  H         1.6874116286       10.9098612900       29.5747825070
  C         3.1097347559        9.1837781614       29.5423711974
  H        -2.6212830699       10.8355845637       26.4137238805
  H        -3.2455099927       11.0507639191       28.0671646226
  C        -4.0710646469        9.5191492255       27.0844680845
  C        -1.5308871543       15.3685407752       32.0650884813
  C        -2.0131023631       13.1516107351       32.9906091295
  H         5.9926188797       12.5358960079       19.5553858686
  H         5.1409445994       13.9370792126       19.4276261324
  C         7.0093744284       13.6452727485       18.1741256312
  H         2.8319518970        6.6082795481       16.1416653745
  C         3.5257644507        7.9968690269       14.8728444023
  H         3.4054323097        8.3486981477       28.9103307927
  H         2.6542751899        8.8352704692       30.5584589388
  C         4.4806495213        9.8902499452       29.8374383708
  H        -3.8867708017        8.5028792171       26.6279379651
  H        -4.6952270488        9.3041244690       28.0716108027
  C        -5.1219600645       10.2809831679       26.2979457735
  N        -1.3312195369       16.4044053416       31.1370942320
  C        -1.9134217889       15.9641349160       33.2830553398
  C        -2.4370910903       13.7021679783       34.2252277994
  H        -2.1415508668       12.0599530043       32.8823403351
  H         6.2989048344       13.7699578545       17.3543348033
  H         7.7638265628       14.3528323201       18.1812605924
  H         7.4397363770       12.5875404283       18.0148235525
  S         3.8937404305        9.5838477164       14.1992786912
  C         3.5732934597        6.8907327987       13.7577254820
  H         4.6384373073       10.8530155328       29.2677057263
  H         4.4456797295       10.2098369720       30.8284284411
  C         5.7875065520        9.1428601751       29.6387188428
  H        -4.5474100454       10.4342570651       25.3138110300
  H        -5.2387883994       11.2712969071       26.6966737335
  C        -6.3891366975        9.5579689261       25.9773583035
  S        -1.5932681811       17.8259043304       31.8058903825
  N        -1.9297354911       17.2759383746       33.2777151846
  C        -2.2273431140       15.1806318880       34.3929431704
  H        -2.5366775558       12.9400416028       35.0652410415
  C         4.0204932128        8.7895933304       12.6132956603
  N         3.8293423321        7.4590490245       12.5636854061
  O         3.5183999326        5.7175861056       13.9646189538
  H         6.6419151799        9.7763201809       29.7639881491
  H         5.8355428546        8.8638738499       28.4994776187
  C         5.9668942805        7.8512489577       30.5282865112
  H        -6.3475850614        8.7036752039       25.3767391654
  H        -6.5100561504        9.0410342097       26.8792366032
  C        -7.4350003419       10.5581765563       25.6272599146
  C        -2.5027857078       15.9251285894       35.5878572332
  S         4.5487851941        9.5389529728       11.0971141484
  C         3.7732798539        6.6041764153       11.3885554970
  H         6.1829126695        8.1438476682       31.5771533695
  H         5.1033174273        7.3777708614       30.6504815757
  C         7.0027392240        6.8570002347       29.9167899541
  H        -7.2069329642       10.9154758481       24.6079584365
  H        -7.4918668524       11.4393071361       26.2954756912
  C        -8.8272376931        9.8948158612       25.4721237308
  H        -2.6264578867       17.0422831168       35.4467172895
  C        -3.1402699196       15.5653936938       36.7192408026
  H         4.3264266323        6.9176779759       10.5825519578
  H         4.0694738526        5.6368692927       11.6860911385
  C         2.3052928996        6.4340782216       10.8557591828
  H         8.0376996197        7.1946863432       29.9713152114
  H         6.6731568998        6.7284703959       28.8518952908
  C         6.9546556825        5.4909925243       30.6536484721
  H        -9.2966256563       10.1508800838       24.5324440981
  H        -8.7432960317        8.7668809644       25.5292656946
  C        -9.6787486693       10.3256008248       26.6103224880
  S        -3.5909596938       14.0192027204       37.2135745865
  C        -3.4761093595       16.6045146848       37.7622269766
  H         1.7126456054        7.2184126652       11.3241210187
  H         2.2692354749        6.3546111079        9.7200550205
  H         2.0613219259        5.3675923979       11.1712916614
  H         7.2878102518        4.5985314411       30.1148565858
  H         5.9434616366        5.2544103727       30.8695949427
  H         7.4718546429        5.5857474386       31.5379712453
  H        -9.2708870082        9.8958719085       27.4038954476
  H       -10.7444315491        9.9912201711       26.5718363889
  H        -9.7699931588       11.3501464801       26.6260795566
  C        -4.3965435412       14.7370548377       38.6139714264
  N        -4.0768820931       16.0343674142       38.7824639576
  O        -3.2353319878       17.7846983341       37.6796082811
  S        -5.0685966955       13.7981935011       39.9602058702
  C        -4.3665983798       16.7662715323       40.0580597445
  H        -4.7694538999       17.7240023122       39.8347234855
  H        -5.1149952311       16.2287013954       40.7332061725
  C        -3.0661305458       17.0010988177       40.8206656975
  H        -2.1955552255       17.0691092821       40.0984159702
  H        -3.2090431058       18.0362849807       41.2761140610
  H        -2.8494379485       16.1766998986       41.5803815574
