352
 i =    63300, time =    63300.000, E =        25.3896075855
  H         9.9683314772        4.4588237168       32.0444474755
  C        10.2695046173        5.3781828198       32.5093543789
  H         9.5443071314        5.6530842109       33.3390908020
  C        10.3619274285        6.4950663083       31.4469105543
  C        11.6252441939        5.1317199519       33.2238693607
  C        10.9604267238        6.1260038895       30.0453150443
  H         9.3553313918        6.9291126954       31.2528099628
  H        11.0206526062        7.2628658915       31.9005764286
  H        11.5904436008        4.3763371807       34.0163965937
  H        12.4399567140        4.9851839903       32.5331166134
  H        11.8114819821        6.0617995650       33.7216301226
  C         9.8775345813        5.9938783096       28.9486395453
  H        11.4819784123        5.1789668567       30.1199929586
  H        11.6744529398        6.8724767293       29.6256391925
  C        10.3768241443        5.7035312044       27.5932522154
  H         9.1117935599        5.3761908696       29.1665769451
  H         9.3849032418        6.9419922686       28.9643940226
  C         9.5022571479        4.7662857028       26.6907719982
  H        11.3655484827        5.2635447752       27.8120128745
  H        10.5537144032        6.5021088588       26.8764609047
  C         8.2288854514        5.6529810560       26.3550190913
  H        10.0041115071        4.4116376704       25.7761388379
  H         9.2359926069        3.8132346482       27.2527573274
  C         7.1737682182        4.8524189009       25.5353425261
  H         7.7953285092        6.0057447965       27.2962289584
  H         8.4612340200        6.6202940994       25.8928729759
  C         6.8289261194        3.4515612523       26.1114086439
  C         7.8170658877        4.1226293325       24.3636281195
  C         6.0250317605        5.6295286685       24.9731865388
  C         7.1522149158        2.3504579121       25.3856754250
  C         6.3717858156        3.0678121068       27.3960083943
  C         7.6646655894        2.7780097788       24.1613911673
  C         8.3011155613        4.8308286721       23.2739287351
  H         5.6102798536        5.1653801013       24.0492279635
  H         6.3671741911        6.5972825022       24.5476027595
  C         4.7844065826        5.9743353007       25.8581279611
  S         6.9173094580        0.8294401471       26.2272350265
  C         6.3391715825        1.6974553296       27.5704972923
  H         6.2012836291        3.7534531004       28.1756911696
  C         8.1078920451        2.2245665533       22.9351626536
  H         8.3129994220        5.8841291096       23.4409952564
  C         8.6170852466        4.3246094282       22.0506423662
  H         4.5890772287        5.1728959716       26.4893931488
  H         4.9911444548        6.7500154113       26.5157793843
  C         3.6491367382        6.5367406679       25.0087151864
  C         5.7952960492        0.9997971957       28.7956043435
  C         8.5747611907        2.9863892758       21.9062865404
  H         7.9688208606        1.1247539158       22.7404361111
  C         9.1078500715        4.6864917003       20.8452262813
  H         3.4559232927        5.8602558385       24.1389305658
  H         3.7553200726        7.5461989490       24.7815107178
  C         2.4484538618        6.5008571710       25.9375007305
  C         5.7895104884       -0.3795181338       29.0450905391
  C         5.0312797422        1.8747883536       29.8374733862
  C         8.9809858701        2.3078974868       20.6803224005
  C         9.1867448217        3.6336880643       19.9624697420
  S         9.4259543546        6.2072241221       20.0421990600
  H         1.7074882714        6.9806187099       25.3793553245
  H         2.5791059720        6.9855893434       26.8564568616
  C         1.8980666621        5.1118304597       26.2675843327
  N         6.2759755505       -1.4141257264       28.2810121775
  C         5.5147183761       -0.8688197295       30.3358186358
  C         4.7665076222        1.3682168480       31.0884164442
  H         4.9244668748        2.9005670390       29.6615040545
  C         7.8185157857        1.6131043604       20.0182631643
  C        10.2704513688        1.4330788879       20.7751667247
  C         9.4902221812        3.9852182530       18.6404493013
  C         9.4997255804        5.3967928577       18.4994866227
  H         1.2152556657        4.8545871260       25.4943871660
  H         2.7056595600        4.4279863848       26.3100177468
  C         1.1390028213        5.0560115951       27.6464970819
  S         6.3332248183       -2.7772093936       29.0645801541
  N         5.8269356709       -2.2338626020       30.4928983854
  C         5.0289281129       -0.0710599853       31.3720534408
  H         4.2926891540        1.9989929899       31.8516874719
  H         7.5162311768        0.7166705926       20.5792451519
  H         8.2159131795        1.3058877653       19.0458767971
  C         6.5612002093        2.4894453454       19.7869063162
  H        10.2279585211        0.8292658251       19.8578542442
  H        10.1751935373        0.7462365768       21.5960822226
  C        11.5233646932        2.2331026284       20.5255951234
  H         9.5634934259        3.2179918733       17.9023308042
  C         9.7541709205        6.1535115682       17.2420691173
  H         0.6494209136        4.0734839945       27.7157738140
  H         0.2833155398        5.8243714293       27.6679936873
  C         2.0718122411        5.2364519803       28.8541981478
  C         4.7008404358       -0.7379202394       32.6561892245
  H         6.7566256965        3.0967939410       18.9409791347
  H         6.2086651365        2.9980349126       20.6867446883
  C         5.3452026010        1.6466734016       19.3569057661
  H        11.7170859457        2.8966223938       21.3317494729
  H        11.6946161509        2.7284645245       19.5732962802
  C        12.7529335390        1.3076418097       20.4383499432
  C         9.7662063320        7.5729219606       17.0957925311
  C        10.1365949687        5.4421271686       15.9887423983
  H         2.7997832801        4.4904522715       28.9094324065
  H         2.6648993970        6.1350334192       28.7375009559
  C         1.1415567587        5.3487161403       30.0798146898
  H         4.6421011533       -1.8459813749       32.5813859395
  C         4.2604116478       -0.2601937192       33.8837672246
  H         4.6334665653        1.6238921185       20.1229171227
  H         5.4994224200        0.5304688599       19.3978954814
  C         4.7633432417        2.0594796859       18.0492230619
  H        12.6697089506        0.4449051287       21.1031400764
  H        12.7798403564        0.8557302550       19.4390338305
  C        14.1476244134        1.9010623374       20.6288185672
  N         9.4433256138        8.4314005180       18.1964849037
  C        10.1953496279        8.2950615334       15.9902683192
  C        10.3352639923        6.1352775857       14.8005655676
  H        10.1848609270        4.3347346684       16.0971148984
  H         0.6531563169        6.3501384385       30.1120544739
  H         0.3854894681        4.4650880423       30.0131584909
  H         1.8055812988        5.1475895606       30.9287598725
  S         3.9898832168        1.3055459847       34.3186703097
  C         4.2852940557       -1.1993213764       35.0452186749
  H         4.4342275193        3.1327381365       17.9570633170
  H         5.5770834021        1.9023974102       17.3650156233
  C         3.5015906559        1.2888198650       17.5714859373
  H        14.1176299094        2.9806693340       20.3496193664
  H        14.8714856207        1.4130991804       19.9745195010
  C        14.5909354987        1.6596448880       22.1070510190
  S         9.7364489932        9.9543962042       17.7285361532
  N        10.1761044696        9.6747099693       16.1997071661
  C        10.4599978744        7.6264223787       14.7393240715
  H        10.4426319275        5.5755423081       13.8606647625
  C         4.0006521080        0.7503936840       35.9494955577
  N         3.9612731034       -0.5930503759       36.1721183025
  O         4.4548892026       -2.4035927332       34.8752671995
  H         3.0101985614        1.9045200166       16.7943560967
  H         2.7944991508        1.1484021535       18.4323560344
  C         3.8660104890       -0.1093393450       17.0660836544
  H        13.8109411561        1.3347476399       22.8104932156
  H        15.2287878050        0.7526767465       22.1143417738
  C        15.3848437176        2.7560387747       22.7391523834
  C        10.8690230924        8.3635919909       13.6110521976
  S         3.6360107946        1.8349382924       37.2556349723
  C         4.1092005202       -1.2803250413       37.3892829280
  H         4.6306628548       -0.0885964657       16.2989306999
  H         4.2390107692       -0.6988927836       17.9168961409
  C         2.5657194627       -0.7175364049       16.5267094302
  H        14.8643971817        3.1296535678       23.5984770900
  H        15.2741480500        3.5609393425       21.9909997950
  C        16.8539128984        2.4976210930       23.1103935105
  H        10.6111595467        9.3946577354       13.7322492443
  C        11.4484873197        7.9844816856       12.3894230229
  H         3.3997743783       -0.9065339693       38.1495022180
  H         3.8757984867       -2.3326591579       37.1154593946
  C         5.6016230741       -1.4137336930       37.8185090967
  H         2.2888491387       -0.2863367956       15.5320560576
  H         1.8528990000       -0.5157917308       17.3445047414
  C         2.7847688503       -2.2075469323       16.2682394952
  H        17.2894396536        3.3650401239       23.5897206972
  H        16.8183192646        1.6817166421       23.8427668179
  C        17.6595759269        2.1843129402       21.8623481362
  S        12.0043813683        6.4868650463       11.9448608947
  C        11.4719694908        9.1003698591       11.4649154395
  H         5.7218814914       -0.5253438316       38.3869753495
  H         5.6854153565       -2.2825477466       38.4982720143
  H         6.3681300125       -1.4612897495       37.0774185400
  H         2.4665296703       -2.7563575595       17.2207967596
  H         3.8156868790       -2.3906057858       15.8154522484
  H         2.0865994154       -2.6067075547       15.4678253038
  H        18.7102231037        1.9087770438       22.1415640959
  H        17.6143500191        3.0077642098       21.1006177536
  H        17.2526269397        1.3228765461       21.3455078129
  C        12.4315325916        7.3404042093       10.5019094793
  N        12.1476228619        8.6789270324       10.4513902835
  O        11.1497383103       10.2445717909       11.6764694812
  S        13.0186139870        6.5954441375        8.9819436922
  C        12.2707774738        9.4743646933        9.2459072757
  H        12.3299677904       10.5729775805        9.4823833101
  H        13.2413594691        9.3507765770        8.7624761456
  C        11.0434717363        9.4395081635        8.3217770775
  H        10.2150172294        9.7510092942        9.0022162776
  H        11.0728315950       10.3209557671        7.6988982323
  H        10.9429780437        8.5945589867        7.6800203549
  H        -3.3936814080       14.8567260737       16.0222187045
  C        -3.2974294322       13.7532329049       16.1947645502
  H        -4.2580671763       13.5214639693       16.5309988379
  C        -2.1935383887       13.5372468764       17.2280757604
  C        -3.0772181711       13.1461413341       14.8702467278
  C        -2.5563192616       14.0583745901       18.6176414025
  H        -2.0371998515       12.4382626358       17.2508135860
  H        -1.2384296837       13.9850651327       17.0190500894
  H        -3.9518514099       12.5752850281       14.5498349420
  H        -3.0002875737       13.9017430059       14.1170890838
  H        -2.1924211805       12.4010939574       14.8889144911
  C        -1.6938295676       13.2257694915       19.6259184068
  H        -3.6096850509       13.9692055924       18.9077324207
  H        -2.4269137347       15.1131888307       18.6597363655
  C        -2.0336512485       13.5978197388       21.1231472681
  H        -1.8833211181       12.1685128365       19.3320455974
  H        -0.5997319882       13.3159602937       19.3959484676
  C        -1.1209214318       12.7672541741       21.9957022285
  H        -3.0852758543       13.3841215963       21.3146325045
  H        -1.9764180898       14.6564123573       21.1930800558
  C        -0.1076931302       13.6461401827       22.5953898758
  H        -1.7517099219       12.3932794600       22.8603901694
  H        -0.6894165239       11.9483813013       21.4265742916
  C         1.0295983886       12.9106222318       23.2188268958
  H         0.2384844813       14.3512905538       21.8401692868
  H        -0.6926834791       14.3001503747       23.2487652311
  C         1.5297880475       11.6401305739       22.5920731340
  C         0.5822609084       12.1416712549       24.4415139949
  C         2.1845729541       13.8590673180       23.5700155686
  C         1.3109684570       10.5046812959       23.3375787422
  C         2.0448259883       11.2879028564       21.3722172216
  C         0.7724109529       10.7962187233       24.5749431419
  C         0.1067564203       12.7812723423       25.6022655833
  H         2.5276778429       14.4222583382       22.7024007668
  H         1.9263040811       14.5655124185       24.4011940031
  C         3.4943349892       13.1225100290       24.0119144878
  S         1.8769284403        9.0110063999       22.6005108927
  C         2.2423170542        9.9047216806       21.1858761762
  H         2.1763487410       12.1013120306       20.6399222354
  C         0.2999743011       10.1631852500       25.6710312509
  H         0.1578581838       13.8536794587       25.6843602089
  C        -0.2592027939       12.0973338351       26.7361243011
  H         3.7800504361       12.2213272890       23.4744877554
  H         3.2002561466       12.8682412430       25.0100269593
  C         4.6969238498       14.0053904106       24.3220460475
  C         2.6191741169        9.2366707320       19.9385632775
  C        -0.2408727336       10.7622270900       26.8209854051
  H         0.3998940858        9.0982790042       25.7363771364
  C        -0.7032137369       12.4127668489       27.9377373829
  H         5.3475952188       13.6305224280       25.0502845184
  H         4.2028458285       14.9229811769       24.7204554079
  C         5.4458221951       14.2420848739       22.9820304808
  C         2.5718724318        7.8639631978       19.7069559874
  C         3.1966625071       10.0583325049       18.9043252118
  C        -0.6689648884        9.9470481872       27.9715319353
  C        -0.9115468027       11.3164603217       28.6620797116
  S        -0.9777045689       13.8879867103       28.7256769878
  H         6.0108545839       15.1406914709       22.9643948547
  H         4.7422392474       14.3686966865       22.1713131075
  C         6.4525527934       13.1333348791       22.7461116450
  N         2.2671139465        6.8210835110       20.6308453916
  C         2.7826958961        7.3237781529       18.4245441014
  C         3.3402944969        9.5484084836       17.6027367837
  H         3.3456052629       11.0922326140       19.0228351452
  C         0.4900113300        9.2217597010       28.6542177074
  C        -2.0004240851        9.0994351732       27.8313766094
  C        -1.4603086135       11.6685061208       29.8906354182
  C        -1.5458525694       12.9974587985       30.2029966512
  H         7.0139940732       12.8967672712       23.6320425633
  H         5.8661509536       12.2765784472       22.7240693436
  C         7.3579566687       13.2374252655       21.5146024802
  S         2.4430370911        5.4189725205       19.9007397563
  N         2.7643560142        5.9328945980       18.3746873598
  C         3.1044711491        8.1109692238       17.3428695050
  H         3.4667779299       10.3278603078       16.9099991903
  H         1.1250726250        8.6186453857       27.9846238058
  H         0.1493403276        8.6143000407       29.5201027393
  C         1.5043002629       10.0382073276       29.2865448826
  H        -1.8144590360        8.1315834094       27.3496690746
  H        -2.3195303742        8.6990897660       28.7604067988
  C        -3.1887439192        9.8624466670       27.1976006016
  H        -1.6641139698       10.9197854184       30.6301482004
  C        -1.8824316530       13.5894958580       31.5032987983
  H         8.0957528279       12.5023330309       21.4220466286
  H         7.9124301208       14.1428877684       21.7079184053
  C         6.5390668816       13.4429187323       20.2165071254
  C         2.9811105138        7.5350112998       16.0017337751
  H         1.9987039152       10.7350472220       28.5494786394
  H         1.0846010255       10.6333981043       30.1351054571
  C         2.6161735489        9.0448400406       29.7878956090
  H        -2.8088484713       10.5177271300       26.4319651552
  H        -3.5436555492       10.5557325588       27.9900813870
  C        -4.2931667803        9.0766204694       26.5721804998
  C        -1.9261097043       14.9623259371       31.6990355867
  C        -2.2960188027       12.8269646545       32.7404890291
  H         6.0235070652       12.5416926227       20.0519500505
  H         5.8495630111       14.1518556444       20.2749077918
  C         7.3960332412       13.7622927469       18.9597312174
  H         2.7172211994        6.4942986382       15.9204391076
  C         3.3124523944        8.0273637206       14.7463054910
  H         3.0322659376        8.4760234781       28.9334655341
  H         2.1603393874        8.2979982236       30.4016211740
  C         3.6901983054        9.8190405905       30.6139956348
  H        -3.8770556407        8.3662528861       25.9260816254
  H        -4.7438111892        8.5976539806       27.4184262809
  C        -5.2570329618       10.0349713602       25.7890048118
  N        -1.9232982982       16.0004264490       30.7327260683
  C        -2.1711982649       15.5318492509       32.9400062547
  C        -2.5014130269       13.4248589731       33.9889041828
  H        -2.2719206249       11.8004372538       32.7502333314
  H         7.8174033736       14.7418795691       18.9184298824
  H         8.1364840754       13.0600777474       18.7466789482
  H         6.7034487407       13.7154214475       18.1487444624
  S         3.7283162621        9.6623483261       14.3102133227
  C         3.5273316984        7.0029740365       13.6706800755
  H         3.9090294759       10.6774399083       29.9995041354
  H         3.3962384496       10.1809768258       31.5822641471
  C         5.0232384617        8.9918790636       30.7502523813
  H        -4.9654782613       10.1713571891       24.8141961298
  H        -5.3747852110       10.9898235961       26.2606161314
  C        -6.6368899933        9.3695535062       25.7340447224
  S        -2.0686917378       17.4608821400       31.4124354179
  N        -2.2995310421       16.9201226543       32.9411031393
  C        -2.5341318735       14.8195862299       34.1274997283
  H        -2.8010661243       12.8763803361       34.8211093211
  C         4.1076655874        8.9914525932       12.7979331176
  N         3.9437523111        7.6322755637       12.5693749897
  O         3.1371637473        5.8497859298       13.6979015025
  H         5.7796930172        9.6953767871       31.0646802135
  H         5.3209185894        8.5609040590       29.7455304507
  C         5.0072709355        7.7240254673       31.7487368112
  H        -6.5835185202        8.3547798986       25.2827783255
  H        -7.1132740136        9.1557752350       26.6319417857
  C        -7.6659217783       10.1549399439       24.9553749769
  C        -2.8350343543       15.5325978498       35.2982098587
  S         4.7925917173       10.0832726865       11.5681701580
  C         4.0918420694        7.0058895967       11.2215759299
  H         4.8376818299        8.0487157034       32.7363162550
  H         4.1400136985        6.9774789703       31.4548471892
  C         6.2837745153        6.8725568705       31.6464004729
  H        -7.3833324505       10.0461915230       23.9610436282
  H        -7.7315107329       11.1978524049       25.2404593136
  C        -9.0139207500        9.4683136263       25.2169560567
  H        -2.5795025789       16.6004185172       35.3359624408
  C        -3.4622935408       15.2868557062       36.4709375853
  H         4.6086668829        7.5313771980       10.4755553896
  H         4.6745589468        6.1358140142       11.4719567198
  C         2.6943943752        6.6017671408       10.6349061857
  H         6.5989587799        6.5234955559       32.6605844513
  H         6.9578788703        7.5969394396       31.2580077715
  C         6.0367282193        5.6523565866       30.8226813188
  H        -9.6965528944        9.7220481570       24.4330292674
  H        -8.8926306875        8.4193012690       25.3365162916
  C        -9.6573620125        9.9371985735       26.5285298134
  S        -4.2215064028       13.7842525752       36.7411685711
  C        -3.4585674371       16.2442214110       37.5831346025
  H         2.7247240860        5.5906245950       10.2236274678
  H         1.8090000379        6.5738500105       11.2406726427
  H         2.4104492731        7.0955094489        9.6905273138
  H         5.6474722174        5.9671784772       29.9224165967
  H         5.3364082503        4.9772355715       31.3231707725
  H         6.9090829178        5.0411961102       30.6191589078
  H       -10.6073216863        9.3978930157       26.5289277651
  H        -9.9519757560       10.9313643478       26.6957198022
  H        -9.0741725167        9.7279284566       27.3755834686
  C        -4.6736536388       14.4350481908       38.2784046208
  N        -4.2355329542       15.7380304156       38.5396857222
  O        -3.0514363177       17.4349272301       37.5529187603
  S        -5.5265111356       13.4747871711       39.4618666163
  C        -4.4716387539       16.3162888690       39.9013920462
  H        -4.4283224889       17.3170945731       40.0148227300
  H        -5.4838745973       16.1763220907       40.2192851242
  C        -3.4635338366       15.7392440557       41.0431667717
  H        -2.4770714096       15.5613792028       40.6372756124
  H        -3.2266834020       16.4793932789       41.7566838424
  H        -3.8711217778       14.9202728498       41.5555196418
