352
 i =    87600, time =    87600.000, E =        25.0418552623
  H         9.9663790181        6.4197023820       31.4157550426
  C        10.9015063864        6.4974456748       31.8579251245
  H        11.0405325615        7.4160276461       32.3992649384
  C        11.9814983213        6.3538408869       30.8225739074
  C        10.8166020043        5.3842055646       32.8420584285
  C        11.5233805667        5.3667570155       29.6899022063
  H        12.0724322972        7.2999331240       30.3255795755
  H        13.0208158743        6.1686360348       31.1735841578
  H        11.1473626722        4.4286540975       32.5196520884
  H        11.5223734720        5.7158827696       33.6010982542
  H         9.8690413094        5.3185053814       33.3781873735
  C        10.4262237343        5.9704668883       28.7534682290
  H        11.2612573805        4.4846911543       30.1396137678
  H        12.4429630569        5.2075702853       29.1300761852
  C        10.7700517513        5.6872676055       27.2528633403
  H         9.4734944348        5.5178649106       29.0236881223
  H        10.4161971488        6.9835294959       28.8552402842
  C         9.6509546877        4.9411935939       26.5020685014
  H        11.6792280111        5.0644753709       27.1512047926
  H        10.9398681332        6.6393972525       26.7373146765
  C         8.3490643448        5.7224690963       26.2299765229
  H         9.9385244506        4.6641900938       25.5273499315
  H         9.4576393009        4.0047908315       27.0336793840
  C         7.3125351769        4.8078562508       25.5130706167
  H         7.8102041124        6.0253496633       27.0848268066
  H         8.5661083379        6.6076874046       25.5891521476
  C         6.9623009616        3.4182987374       26.1873232289
  C         7.7955085084        4.1116541801       24.3021766134
  C         5.9724567871        5.3808329251       25.1777783690
  C         7.2104128650        2.3420892002       25.3134603417
  C         6.6557242470        3.0799933345       27.4981659970
  C         7.7378815004        2.7734750511       24.1246685619
  C         8.2713194070        4.8196011721       23.2014568293
  H         5.3692782104        4.6180302954       24.7217488471
  H         6.1453583565        6.2262784341       24.6275770903
  C         5.1626206006        5.7638757378       26.4053099707
  S         6.8695508049        0.8372800361       26.1371496521
  C         6.5696010560        1.7343175961       27.6086215670
  H         6.4858227338        3.8918075451       28.1981184632
  C         8.0952202943        2.1384360613       22.9966858458
  H         8.3832988053        5.9137451128       23.2966087333
  C         8.5343410507        4.2287360494       21.9978093962
  H         5.5774736591        5.7980264383       27.4458255302
  H         4.8918129901        6.7620561639       26.2256130779
  C         3.7913462557        5.0945412110       26.3975361441
  C         6.0725035822        1.1233432754       28.8592849596
  C         8.4940068351        2.8501552097       21.8616505941
  H         8.0172505295        1.0500038665       22.9311222358
  C         8.9775963299        4.5943441155       20.7794919883
  H         3.9147443545        4.0460082096       26.5472816502
  H         3.2455373267        5.1695603450       25.4976709722
  C         2.8192289910        5.6125130846       27.4717450528
  C         6.0686070986       -0.2490962408       29.1910860586
  C         5.5617790129        1.9551124580       29.9187758406
  C         8.9457940314        2.1736452940       20.6227383285
  C         9.1780040128        3.5191213653       19.8851787325
  S         9.2298502916        6.1215005693       20.0701611967
  H         2.2635815574        6.5023121079       27.0664299650
  H         3.2808699683        6.0150350870       28.3547606909
  C         1.7844742955        4.5510972703       28.0417663859
  N         6.5475487269       -1.2409253705       28.3505327453
  C         5.6956040639       -0.7397920603       30.4212511865
  C         5.2613905775        1.4926914154       31.1857966068
  H         5.4710548054        3.0205046297       29.7436611929
  C         7.8462653032        1.4232577922       19.8945201876
  C        10.2204867233        1.4709807090       20.8487239569
  C         9.4687963911        3.9699605739       18.5551791244
  C         9.5879272514        5.3656471610       18.5346755810
  H         1.4190648829        3.9826059655       27.1997051929
  H         2.3888977891        3.7537845140       28.6375072859
  C         0.7554789230        5.1832677069       28.9190998624
  S         6.4907978311       -2.7018378727       29.0781143599
  N         5.7389342795       -2.1637846626       30.4113725031
  C         5.4540064364        0.0574137979       31.5238854374
  H         4.9862231318        2.1563599057       31.9905810650
  H         7.6090311332        0.5110428453       20.3514055377
  H         8.0341712347        1.1053724727       18.8973257534
  C         6.5223857661        2.1818416075       19.8029004961
  H        10.3262703808        0.5997672551       20.1897203860
  H        10.0855495890        1.1010279665       21.8820298186
  C        11.4406536719        2.3383163160       20.8448996507
  H         9.7062241817        3.1939949905       17.8247930982
  C        10.0725680991        6.0323825029       17.3240791537
  H         0.0253437189        4.4171061319       29.2072204755
  H         0.1772657356        5.9154505039       28.3677602765
  C         1.2912453668        5.8488954301       30.2221998086
  C         5.0738501132       -0.6406011921       32.7856342585
  H         6.6025844565        3.0833867754       19.2492092471
  H         6.0969793148        2.4019606624       20.7692151856
  C         5.4675631970        1.2682508627       19.1083273864
  H        11.3576816376        3.2593055029       21.4498588748
  H        11.7295805242        2.7539096189       19.8909595041
  C        12.6011733446        1.5511569872       21.2547513832
  C        10.0744965874        7.4241820252       17.1945660642
  C        10.4435925105        5.3043518989       16.0566511591
  H         2.1284517662        6.5710130496       29.9885176615
  H         0.5874605854        6.5423439832       30.6476290122
  C         1.9641050677        4.9004832823       31.2607172582
  H         5.1288422220       -1.7027920002       32.6854238908
  C         4.8659040062       -0.1997385932       34.0182124326
  H         5.2784613258        0.3910517351       19.6444898631
  H         5.8529092368        1.0036196030       18.2082686421
  C         4.1956672808        2.0296429518       18.9039421135
  H        12.2966688532        0.9642787116       22.1143834468
  H        12.9495141078        0.7930307484       20.5325329018
  C        13.8230169713        2.4669496040       21.5822015478
  N         9.6655032565        8.2783861947       18.1377585724
  C        10.4723059850        8.1152311196       15.9955605311
  C        10.6275154754        5.9219659062       14.8584996853
  H        10.2039332582        4.2389245877       16.0302954233
  H         2.3378646173        5.5726334226       32.0318317089
  H         1.3472519454        4.1770681147       31.6640662637
  H         2.8295224260        4.4205149241       30.8422080214
  S         4.6101195988        1.4096025300       34.4562880543
  C         4.8693177378       -1.1175763660       35.1913593205
  H         3.9060214734        2.7948367494       19.7249569054
  H         4.2525572119        2.6623555303       17.9667189119
  C         2.9974960472        1.1188728150       18.9481752890
  H        13.5242311997        3.3896897678       21.9868782906
  H        14.3215499776        2.8359038991       20.6644783943
  C        14.7902808679        1.8049239826       22.5685454613
  S         9.9587321094        9.7909384500       17.6036834682
  N        10.4305228363        9.5113927008       16.1174128856
  C        10.7083682836        7.3867670859       14.7922073892
  H        10.7377636502        5.3216411212       14.0464418281
  C         4.3427127203        0.8342762094       36.1295598065
  N         4.3856693310       -0.5376593979       36.2992462133
  O         5.1538386942       -2.2903840879       35.1151855445
  H         2.1556041866        1.7740472042       18.9430444393
  H         3.1122245744        0.5707788579       19.8517038859
  C         2.9100517208       -0.0067479774       17.9253745175
  H        14.2518919836        1.2787226053       23.4385686283
  H        15.3146179173        1.0611932443       21.9079971920
  C        15.8028075774        2.8444680609       23.1994437254
  C        11.0429393339        8.1394105181       13.6303284813
  S         3.9738356121        1.8085415112       37.4989754434
  C         4.3031977262       -1.1348675311       37.5925594528
  H         2.1097734376        0.2630714868       17.2504233089
  H         3.8740889028       -0.0293209820       17.4597699981
  C         2.8647026154       -1.3816957356       18.4483108399
  H        15.2061223340        3.4698224201       23.9271179325
  H        16.1673542239        3.5158752572       22.4382965201
  C        16.8685210332        2.0372926500       23.8651329018
  H        10.5877309702        9.1151624540       13.6088009341
  C        11.5356206119        7.8488122316       12.3675150032
  H         3.4641816865       -0.8008323897       38.1982245795
  H         4.0048085068       -2.2274994709       37.4713546837
  C         5.6487724183       -1.0498922489       38.3467271600
  H         2.1029689173       -1.6031685888       19.1900598718
  H         3.8266228452       -1.5172891899       18.9605259358
  C         2.7232775049       -2.3512986032       17.2444326834
  H        17.3087420909        2.6891526592       24.5678384693
  H        16.4659873583        1.1664784798       24.3928730150
  C        17.8800297760        1.4531196371       22.8462590877
  S        12.1853636085        6.4004052750       11.7454133833
  C        11.4597851790        8.9469396299       11.3250973905
  H         5.3772523954       -0.6751376893       39.3474802864
  H         5.9896779097       -2.1255962361       38.4251769580
  H         6.5546145594       -0.4788873005       37.9124367824
  H         1.7169190898       -2.6994683483       17.1686070676
  H         3.3861994756       -3.2611896922       17.2816850720
  H         2.8774813335       -1.9370949939       16.2287162482
  H        18.1509637405        2.1368806256       22.0532553697
  H        17.4980974459        0.4781415362       22.4195943702
  H        18.8063813035        1.2481961552       23.4526970545
  C        12.4315347313        7.1416070427       10.1977757056
  N        12.0311019105        8.4276061534       10.1427085224
  O        11.2141710940       10.1688735845       11.5327761767
  S        12.9362688214        6.3888312422        8.6492141326
  C        12.0482546941        9.2085902162        8.9186335077
  H        12.0024834596       10.2372307599        9.1762339005
  H        12.9900154132        9.1450558199        8.4461185016
  C        10.8816814677        8.8192255403        7.9660344297
  H        10.0864756807        9.5921445483        8.0251687444
  H        11.2487159741        8.9294935949        6.9971561754
  H        10.6211394284        7.8189033477        8.2407036226
  H        -3.7053814559       14.9307827349       16.8563918081
  C        -3.4712999592       13.8808995613       16.8055721729
  H        -4.3283999778       13.3570376880       17.1811461541
  C        -2.4000251982       13.6054658367       17.7273272429
  C        -3.4160517786       13.3884180069       15.3109607690
  C        -2.8877964518       13.2294517077       19.0493695237
  H        -1.8202193482       12.8849955297       17.1276284931
  H        -1.8992424615       14.5699204228       17.7901111871
  H        -3.0199687008       14.1068642833       14.6478879106
  H        -3.0551191118       12.4206096722       15.2125636288
  H        -4.4614596743       13.4262036572       15.0171333718
  C        -1.7697759699       12.9197178151       20.0504340960
  H        -3.5458862039       12.2837493983       18.8928498990
  H        -3.5790995309       14.0355601589       19.4226306559
  C        -2.3340641504       13.0952998988       21.4664919979
  H        -1.4066093795       11.9642417193       19.8821208098
  H        -0.9666017123       13.6420608029       19.9944797735
  C        -1.4506490148       12.4603055064       22.5531857113
  H        -3.3143697986       12.6636769723       21.4436363307
  H        -2.5219634150       14.1424305445       21.6480592759
  C        -0.2655898925       13.3369954693       22.8754680633
  H        -2.0050391158       12.2240214696       23.4854182766
  H        -1.1381019824       11.5558924643       22.0988406428
  C         1.0232985540       12.7466728133       23.5904625230
  H         0.0837507337       13.8538745430       21.9609324525
  H        -0.5443211769       14.2098312990       23.4694260102
  C         1.3913157176       11.4234041126       22.9341258286
  C         0.5938957823       12.0628199104       24.8122192240
  C         2.2277029333       13.7178913008       23.7865231126
  C         1.0399814916       10.2907149950       23.6685653580
  C         1.9055930641       11.0794646758       21.6633243388
  C         0.6262485903       10.7183179051       24.9372298674
  C         0.1645803792       12.8519674900       25.9061943125
  H         2.3803996814       14.2553509528       22.8490721893
  H         1.9121071288       14.4923089410       24.4185415249
  C         3.5915974082       13.1003501414       24.1638760268
  S         1.3237203210        8.8315379314       22.7703298369
  C         1.9578735187        9.7495321263       21.4244861366
  H         2.2071976641       11.8866613819       20.9635724784
  C         0.3176102157       10.1851807438       26.1222195139
  H         0.2838001163       13.9267521572       25.9412064168
  C        -0.2437021757       12.2242968178       27.0539600667
  H         3.7917377361       12.1479650782       23.6137025068
  H         3.5740038077       12.7714114931       25.1914216150
  C         4.8263280412       13.8875262430       24.0793009538
  C         2.3763567334        9.1070410371       20.1307751443
  C        -0.0915888912       10.8730219913       27.2002291070
  H         0.3332533422        9.1158832676       26.1849454764
  C        -0.6257527919       12.6083450812       28.2657413924
  H         5.5144435494       13.3052032151       24.7073487409
  H         4.7758465727       14.8422505275       24.5983776005
  C         5.4783988845       14.0387533809       22.7001646844
  C         2.3158072192        7.7429233379       19.7813405777
  C         2.8842940460       10.0257275122       19.0669148376
  C        -0.4781895735       10.1557491333       28.4538128055
  C        -0.6582378854       11.5321216228       29.1362736049
  S        -0.9745448164       14.1262446910       28.9956764174
  H         6.3647166169       14.7435097109       22.7803984675
  H         4.7224435628       14.4463537330       22.0495682033
  C         6.0402800617       12.6705176521       22.1676595192
  N         1.8702834064        6.7787023240       20.6768658758
  C         2.7137904569        7.2042573340       18.5989363459
  C         3.2421628863        9.4897066971       17.8396292255
  H         3.0000492301       11.0638984244       19.2613170422
  C         0.6508206446        9.3551724461       29.1877921888
  C        -1.8564581418        9.4076180318       28.3824478294
  C        -1.0963733820       11.8959379248       30.3978258125
  C        -1.3177543779       13.2469385279       30.4701516362
  H         6.5526617991       12.1482318876       23.0421887931
  H         5.1975365937       12.0177127779       21.8556058943
  C         7.0835113733       12.8155064454       21.0194548859
  S         2.1330915209        5.3221072363       20.0457148574
  N         2.5591555580        5.7884486675       18.6268017785
  C         3.1147788769        7.9892336640       17.5015367451
  H         3.5272062608       10.2258835643       17.0841419035
  H         0.9020316166        8.3567786622       28.7208751268
  H         0.3403439824        9.2401783332       30.1709342553
  C         1.9759337967       10.1591875406       29.3404480010
  H        -1.9645354939        8.4106657833       28.0683977014
  H        -2.0872391495        9.2910773938       29.4689997215
  C        -3.1059220169       10.2053687619       27.9936619179
  H        -1.2371255493       11.1135608809       31.1466575344
  C        -1.5563513350       14.0059109795       31.7661225665
  H         7.6397748848       11.9314156834       21.0173513339
  H         7.7127842005       13.6754716446       21.3029183316
  C         6.5472515029       13.1535979926       19.6679624812
  C         3.3562515005        7.3661462300       16.2357748208
  H         2.1966148383       10.6416154995       28.4102287705
  H         1.7611176168       11.0316953264       29.9838715127
  C         3.0089310969        9.2937111968       30.0112670921
  H        -2.9370981995       10.6380340971       27.0504938428
  H        -3.2907576780       11.0495432554       28.6558705859
  C        -4.3057658075        9.3068436378       27.9019156478
  C        -1.3743975958       15.4288653997       31.9828006013
  C        -1.8320154561       13.2901851838       33.0618712544
  H         5.6318436800       12.5363609884       19.4761523018
  H         6.2199604729       14.1770735157       19.5178330671
  C         7.5636831672       12.8756098013       18.5634493301
  H         3.3840448774        6.3193080502       16.3290672838
  C         3.6948813497        7.8908090389       15.0285714057
  H         3.1500591821        8.3990912092       29.4123026213
  H         2.6712446339        9.0275746677       31.0463693861
  C         4.3241296462        9.8747683094       30.2097028059
  H        -4.1593143563        8.5311463457       27.0914320148
  H        -4.2732243910        8.8511163613       28.9104852107
  C        -5.5517487374       10.0585399364       27.6040289895
  N        -0.9743179442       16.3314622883       30.9853909857
  C        -1.8164555583       16.0492295559       33.1499010577
  C        -1.9775189255       13.9112271794       34.3146850255
  H        -1.8666604727       12.2107684280       32.8755215063
  H         7.4879596665       13.7292034699       17.8399515429
  H         8.5684470787       12.6388639033       19.0751291869
  H         7.2762205558       12.0416292171       17.9471461936
  S         3.9151041255        9.5619200698       14.5951914881
  C         3.8931711286        6.8834423490       14.0160527775
  H         4.5377495531       10.1967613617       29.1539987882
  H         4.3866839596       10.8331578543       30.7221002744
  C         5.3195624028        8.9247004658       30.8789050310
  H        -5.5451151713       11.1457409430       27.8354386839
  H        -6.2527533554        9.7120244564       28.3852652266
  C        -5.9640615560        9.8527681242       26.1360389369
  S        -0.9867641931       17.8550028743       31.6297173972
  N        -1.6845482570       17.4269506250       33.0889105773
  C        -2.1321978601       15.3297292831       34.3327718595
  H        -2.1317773075       13.3569120967       35.1974104503
  C         4.2944370401        8.9257727229       13.0217325576
  N         4.3096400942        7.5380960949       12.9020670065
  O         3.6469612742        5.6685082937       14.1226959063
  H         4.7370289571        8.3688610215       31.5849367861
  H         5.9480713330        9.5290215436       31.4574154975
  C         6.1726800344        8.1030655771       29.9279353223
  H        -5.0480154797       10.1746583930       25.6161399085
  H        -5.9525049245        8.8198569658       25.8297126171
  C        -7.1814610619       10.7047854911       25.8137478704
  C        -2.3594555408       16.0575820213       35.5108422346
  S         4.6298518213        9.8145676857       11.5272253072
  C         4.4717577000        6.8108294789       11.6046251190
  H         5.6666559691        8.1981658848       28.9358835337
  H         7.0711983967        8.5471005515       29.8111563474
  C         6.2629623699        6.6044551433       30.3565500245
  H        -7.3117271125       10.7411439627       24.7105281363
  H        -7.0587775101       11.7744642317       26.1384839187
  C        -8.3425176382       10.0109927961       26.5054691342
  H        -1.9873304842       17.0778211820       35.5050206386
  C        -2.9179800704       15.6498911216       36.6967639381
  H         5.2547088931        7.3100776028       10.9862724411
  H         4.8915454439        5.8221483737       11.7065915567
  C         3.1915918049        6.7340326684       10.7302441858
  H         6.9952157500        6.0467924528       29.7585184684
  H         5.2884909041        6.1561362609       30.2384720876
  C         6.5280494691        6.2756805472       31.8047678984
  H        -8.2479029035        8.8614985997       26.4171593313
  H        -8.4834935663       10.3365713424       27.5400732575
  C        -9.7048433349       10.3825512189       25.7792913864
  S        -3.5341840884       14.0870906141       37.2471278916
  C        -3.1494357197       16.7175898624       37.6579058265
  H         3.3555677989        7.4704942109        9.9202787423
  H         3.1792932097        5.7289288937       10.2609608356
  H         2.3440462705        6.9526141667       11.2849046362
  H         7.1561928294        7.0062555577       32.3035889525
  H         6.7795258152        5.2651201349       31.9919673895
  H         5.5720539895        6.3704522448       32.3404804238
  H        -9.5770472081       11.4623780705       25.8963682538
  H       -10.5055323251       10.0048425672       26.3784366588
  H        -9.6845405902        9.9372606667       24.7529884732
  C        -4.1622142514       14.9074592228       38.6356268596
  N        -3.8498334371       16.2011250724       38.7057244991
  O        -2.8472212377       17.8752434206       37.6141956819
  S        -4.6867458326       14.0328944111       40.1325009847
  C        -3.9032069800       16.9409526010       39.9255911321
  H        -4.0136267155       18.0278247903       39.7915378504
  H        -4.7573540749       16.5520840986       40.4247104814
  C        -2.5503283693       16.7476043090       40.6799009744
  H        -2.5720797117       15.8066492876       41.1957934172
  H        -1.7240286489       16.6642440052       39.9623441542
  H        -2.3012239214       17.4909079581       41.4149950373
