352
 i =     6100, time =     6100.000, E =        28.4210597889
  H        12.1850507067        5.7716948720       32.1258526083
  C        11.0723242695        5.6698989835       32.0393286115
  H        10.9942130319        4.6387739164       31.7322776275
  C        10.5547317814        6.5519904457       30.8437494595
  C        10.3334313002        5.8866841248       33.4105944882
  C        11.1390747666        6.0887825495       29.5220828463
  H         9.4550888185        6.5532666892       30.7470705944
  H        10.7875910572        7.6167589850       30.9284221023
  H        10.8163329369        6.8151606979       33.7793187493
  H         9.2933651736        6.0472648193       33.2915813495
  H        10.4662420467        5.0891841115       34.1392103909
  C        10.1967560597        6.1186065917       28.3418267671
  H        11.5645974559        5.1084213848       29.6816657083
  H        12.0262861738        6.7511561913       29.3544290585
  C        10.7598913987        5.6785436127       26.9504668706
  H         9.2878354504        5.5242176819       28.5988142020
  H         9.8659504604        7.1173942365       28.2311891408
  C         9.6296903198        5.0833070493       26.1848592317
  H        11.5390800338        4.9186549474       27.0042003440
  H        11.2294023652        6.5625060498       26.6053926596
  C         8.4638133805        6.0006092786       25.8560746470
  H         9.9870114885        4.7213055732       25.1860683380
  H         9.4505809748        4.2049921538       26.7807321428
  C         7.2186361615        5.1989608941       25.1959164145
  H         8.2078432122        6.5240514760       26.7483182274
  H         8.8750668398        6.7314485359       25.2272158437
  C         6.8861542274        3.8571806264       25.9243771660
  C         7.6412688769        4.4670576606       24.0108223101
  C         5.9844775067        6.2093885926       24.9178135413
  C         7.1432392729        2.7263389707       25.1667306746
  C         6.4954360809        3.5448921007       27.2105017028
  C         7.6019207678        3.1079974927       23.9284325690
  C         8.1779971809        5.1357682546       22.8900932372
  H         6.1779103532        6.7994300465       24.0237495901
  H         5.7900855103        6.8542034278       25.7175729698
  C         4.7445224389        5.5225694321       24.6213595602
  S         6.7399720577        1.2387368348       25.9334419854
  C         6.3925838703        2.1771357320       27.3832296933
  H         6.3684211587        4.3999414087       27.8437812610
  C         8.0343888855        2.5002548110       22.7950929187
  H         8.1680127760        6.1810642733       22.8672037663
  C         8.6745988826        4.5034521289       21.7935532333
  H         4.7663054267        4.8173949285       23.8081176174
  H         4.6304006870        4.9328239555       25.5226138515
  C         3.5343633699        6.4360452930       24.4086941395
  C         5.9319972070        1.5541201143       28.7138474996
  C         8.5806425499        3.1337880826       21.6469207656
  H         8.1911129165        1.3435021473       22.8455949342
  C         9.1207100666        4.8018910727       20.5503328637
  H         2.8243752418        5.9001415871       23.6853685981
  H         3.7554467042        7.2382835144       23.7334982742
  C         2.7095999151        6.7134008318       25.6509605928
  C         5.8238626787        0.1560103777       28.9851600210
  C         5.4055406036        2.4163322424       29.7849965987
  C         9.0895960261        2.3806035083       20.5073142489
  C         9.4157255642        3.7238368914       19.8197386431
  S         9.4571282803        6.2642866091       19.7582300815
  H         1.9539726684        7.4530617075       25.4509006917
  H         3.4072630752        7.0442547014       26.3743118441
  C         1.9336182772        5.5011594125       26.1799290182
  N         6.0435803173       -0.8096038147       28.0637739641
  C         5.5841592397       -0.3560984613       30.2850955109
  C         5.0760976594        1.9101384997       31.0350845504
  H         5.1938528357        3.5215208397       29.5451729349
  C         8.0057737920        1.5938319848       19.7267182773
  C        10.3358479574        1.5040991095       20.8069505527
  C         9.7503382901        4.0292116741       18.5073591355
  C         9.8344175869        5.4071032699       18.3221731428
  H         1.2076108823        5.0774216100       25.5580938765
  H         2.6486214114        4.6582377086       26.3379878045
  C         1.0824052347        5.8369410679       27.3321334174
  S         6.1011323236       -2.2602426534       28.8166434814
  N         5.6503437635       -1.7424404892       30.2920696758
  C         5.1869303188        0.4244187500       31.3468259466
  H         4.8150522200        2.5717334708       31.8100421164
  H         7.6883860009        0.5898538926       20.0575297704
  H         8.4593419471        1.3331156734       18.7684212746
  C         6.7387667405        2.3555607814       19.5091440221
  H        10.5208494160        0.9335153017       19.9498034088
  H         9.9940360681        0.8202941924       21.5773619309
  C        11.5476482588        2.3178931130       21.2739701718
  H         9.7941780338        3.2395812516       17.7954588539
  C        10.0824301371        6.1200501560       17.0811743861
  H         0.2163384901        5.1924593414       27.3371396252
  H         0.6489453911        6.8810954988       27.3349429709
  C         1.8047533408        5.9543847997       28.7215564243
  C         5.0232280736       -0.2311429810       32.6496159076
  H         6.9011971930        3.3124655961       18.9668073830
  H         6.3073360982        2.6814422280       20.3944604293
  C         5.6242497399        1.6064846639       18.6330506651
  H        11.3795145216        2.9159668250       22.1774626696
  H        11.8414972512        2.9656040531       20.4971731528
  C        12.7539458157        1.4814039641       21.6693087690
  C        10.0870152496        7.5489325297       16.9419949250
  C        10.1547887992        5.3787190009       15.7735863518
  H         2.6148916051        5.1914322740       28.7299811804
  H         2.2448663209        6.9332101017       28.6859930544
  C         0.7843130834        5.9707532577       29.9484381763
  H         5.3472091710       -1.1998723563       32.6044688690
  C         4.5733856413        0.1845207263       33.8441438442
  H         5.7362142853        0.4994064376       18.6217597397
  H         5.6260676895        1.9118382880       17.5580652768
  C         4.1912683856        1.9993791161       19.0653154708
  H        12.5045057317        0.9775903636       22.5842476183
  H        13.0659091473        0.5905623852       21.0469706486
  C        13.9853344239        2.4024567308       21.9646107641
  N         9.9029628870        8.4361543556       17.9806323003
  C        10.2184784407        8.2475907371       15.7361871504
  C        10.3039230521        6.0674005874       14.6378121563
  H        10.1543038287        4.3401311374       15.7722657415
  H         1.3365555830        5.8463601834       30.8210876477
  H         0.4895427721        7.0187907596       30.1743523306
  H        -0.0872118997        5.3999341560       29.6576301571
  S         4.2155712847        1.7552468861       34.3449905450
  C         4.6095035560       -0.8154034942       34.8882367386
  H         4.1092389124        2.3469289323       20.0695481366
  H         3.7750306631        2.7777742675       18.4725275701
  C         3.2631253270        0.7892119220       18.8485077827
  H        13.6384730159        3.3380126741       22.4374584724
  H        14.4642425355        2.7552618455       21.0185327129
  C        14.9387563409        1.6352343311       22.8536918669
  S        10.0174915340        9.9687059906       17.4129933158
  N        10.1865441939        9.5880301483       15.8482705156
  C        10.4522265705        7.5403164328       14.5569297651
  H        10.3535456483        5.5848494341       13.7117427047
  C         4.1411264669        1.1445734756       36.0022272439
  N         4.2584953539       -0.1924333264       36.0576636111
  O         4.7176706630       -2.0696705165       34.7157776011
  H         2.1729216037        1.0107431703       19.0640067703
  H         3.6016136217        0.0127994885       19.5573598298
  C         3.3012127467        0.1728751699       17.4180331980
  H        14.5484675148        1.3917963648       23.8564923400
  H        15.3822303675        0.7449318453       22.3020099776
  C        16.1694990127        2.5162950319       23.1201582442
  C        10.7709521738        8.3422639322       13.4089305105
  S         3.6402618524        2.0779531078       37.4706914173
  C         4.1862351944       -0.9118495030       37.2784480629
  H         3.1750991612        0.9583201420       16.7109784909
  H         4.2547479170       -0.2900516698       17.1759252500
  C         2.0528640755       -0.7375769275       17.1989417112
  H        15.9679086954        2.8541836138       24.1071645123
  H        16.3638540941        3.2543794626       22.2907235992
  C        17.5463627742        1.7885513775       23.3382937176
  H        10.5536949397        9.4432139554       13.5686280851
  C        11.3617224899        8.0457810068       12.1897213958
  H         3.3579368682       -0.4973694455       37.8548317310
  H         3.9868729594       -1.9469253431       37.0281110960
  C         5.5298357714       -0.7581141685       38.0077814404
  H         1.8957151163       -1.0214643174       16.0846876062
  H         1.2248286509       -0.0295750421       17.3092997588
  C         1.8657167496       -1.9739668415       18.1471391568
  H        17.8977314830        1.9490610498       24.3786593774
  H        17.4185928606        0.6819075847       23.2842856390
  C        18.6683501206        2.1246457008       22.3442156877
  S        11.8873246410        6.5480715069       11.6500442457
  C        11.4146471429        9.1588043383       11.1389292394
  H         5.3843186729       -0.1359270739       38.9584858842
  H         5.8462940717       -1.6818989766       38.4035336460
  H         6.3260967189       -0.3065593357       37.4890598872
  H         2.3306733821       -2.1044453157       19.1170999615
  H         2.2567455747       -2.8214299231       17.5530121542
  H         0.8581106760       -2.3613129646       18.2459644981
  H        19.2116299322        2.9699145231       22.7326061106
  H        18.1003127359        2.3950253507       21.4100954817
  H        19.1998059483        1.2833830925       21.9515530419
  C        12.1477104271        7.2838293677       10.1075657113
  N        11.9805078137        8.6313142603       10.0353002487
  O        11.1544994022       10.3645943058       11.2529793150
  S        12.7136593793        6.4933315849        8.6599926455
  C        12.1144745165        9.4923849764        8.8158899589
  H        12.4749827790       10.4442346881        9.2267439404
  H        12.9397405306        9.2160984167        8.1995836527
  C        10.8571494467        9.7572447901        8.1014260180
  H        10.1077095367       10.2862976585        8.7621276338
  H        11.0999050836       10.3331162352        7.1784706529
  H        10.2340929191        8.8377781258        7.8054281332
  H        -4.0118643389       14.1857029070       16.4899050318
  C        -3.1123552984       13.4931945184       16.3770065308
  H        -3.4627119508       12.5242188622       16.6696564155
  C        -2.1588241334       14.0090834983       17.3952069185
  C        -2.5159834495       13.6949678551       15.0082925602
  C        -2.6895486836       13.9178451967       18.8009512334
  H        -1.2210755916       13.4493356598       17.3980031863
  H        -2.0257741556       15.1087052027       17.1421663706
  H        -2.7307685137       14.6327952790       14.4236202617
  H        -1.4123564508       13.7657576502       15.0775711941
  H        -2.8612085421       12.8459418541       14.3959575948
  C        -1.5286832854       13.7618024826       19.8382549996
  H        -3.4853541449       13.1903075430       18.8636814924
  H        -3.1494943369       14.8646698912       18.9186497742
  C        -2.0115593437       13.6832172258       21.2773907250
  H        -1.0529590685       12.8742470489       19.5139642273
  H        -0.8092664852       14.6089120778       19.6704693881
  C        -0.9760177920       13.0696154080       22.1718312598
  H        -2.9546908445       13.1140085770       21.2164616026
  H        -2.2244238733       14.6635627621       21.6260828412
  C         0.2231880871       13.9044262060       22.3477801715
  H        -1.4527529275       13.0562867910       23.1184914274
  H        -0.6919345906       12.1255833659       21.7944771604
  C         1.2840563390       13.1729394082       23.2102992429
  H         0.5118779237       14.2488259851       21.3264006284
  H        -0.2217865375       14.6505101487       22.9153318608
  C         1.6649830518       11.8552228908       22.6099691505
  C         0.8064434085       12.5107910936       24.5475093798
  C         2.4701354157       14.1261529596       23.4946841204
  C         1.2820182589       10.7918727209       23.4362297481
  C         2.2160487238       11.5732868311       21.3682255120
  C         0.7417738919       11.1720626187       24.6229660238
  C         0.3005727822       13.2302213532       25.6019263296
  H         2.6333200424       14.8128945269       22.6210130415
  H         2.1446432330       14.7132763504       24.3704216341
  C         3.6586234666       13.3995089644       23.9912657631
  S         1.5353184356        9.3568169441       22.5209271882
  C         2.1924933157       10.2423459499       21.1850991246
  H         2.3582306059       12.4234832907       20.7287230125
  C         0.2316683542       10.5995313879       25.7408516955
  H         0.4431582565       14.3389092625       25.5428937142
  C        -0.2452486293       12.7184731307       26.6987629068
  H         3.8510459290       12.3776416899       23.4946337651
  H         3.4141495004       13.1336598153       25.0184329813
  C         4.9429950022       14.3268801418       24.0676054132
  C         2.5966636724        9.5628555023       19.9039674604
  C        -0.2322204662       11.3635627609       26.8172231989
  H         0.2664511394        9.5665356997       25.7711035108
  C        -0.6939855526       13.1360174288       27.9273827667
  H         5.5803852072       14.0498456374       24.9486699273
  H         4.5489166788       15.2613563131       24.3560827955
  C         5.7125692865       14.4860010917       22.7706029091
  C         2.5326151389        8.1718048018       19.6445121199
  C         3.1556974687       10.3925866943       18.8181744265
  C        -0.7165123936       10.6849755285       28.0748778775
  C        -0.9694160844       12.0545859614       28.7444358804
  S        -0.8827337711       14.6248283467       28.7255693573
  H         6.3338829155       15.3609835673       22.6710935046
  H         4.8813805325       14.7565550850       22.1065072498
  C         6.4166235846       13.2647056103       22.0817212856
  N         2.2492215212        7.1933642469       20.6091761072
  C         2.8653599766        7.5925960143       18.4730546070
  C         3.3738263205        9.8633455510       17.5681912378
  H         3.2373683264       11.4289163420       19.0518002824
  C         0.2945149710        9.8665362758       28.8590056529
  C        -1.8904710990        9.8073833188       27.9147416734
  C        -1.2989851256       12.4233639818       30.0495363859
  C        -1.2820717883       13.7713455348       30.1782254776
  H         7.2214134110       12.7642198183       22.6100261608
  H         5.7380419694       12.4387298249       22.0991693096
  C         6.6839540132       13.5115608384       20.6082716355
  S         2.3582883965        5.6928089852       19.9258796346
  N         2.5662371665        6.2180763981       18.4096747702
  C         3.1503962052        8.4225889549       17.2988581065
  H         3.5464625972       10.4696300194       16.6730359503
  H         0.5943415995        9.0637317546       28.1803054180
  H        -0.2214413366        9.5583546046       29.8567988565
  C         1.5787369213       10.6355227980       29.1177662003
  H        -1.6392626721        8.9051151158       27.2871246875
  H        -2.0823135934        9.3299879844       28.9002493201
  C        -3.1292782063       10.5165271230       27.3484409074
  H        -1.3956699111       11.7240603218       30.8290037992
  C        -1.5590102915       14.4539543007       31.4942217506
  H         7.6299776202       12.9757425897       20.5535636523
  H         6.8272744285       14.5449149663       20.4272750277
  C         5.6748251674       13.0071752432       19.6342639341
  C         3.3264602763        7.8034716382       16.0447291597
  H         1.9263990189       11.0025515426       28.1672941430
  H         1.4027233940       11.5023116450       29.7562576062
  C         2.6678425755        9.7258730054       29.5812327916
  H        -2.7996315295       10.9421385533       26.3911109828
  H        -3.3988439762       11.2773918264       28.0136365348
  C        -4.2788086496        9.4371824735       27.0811766136
  C        -1.6858790210       15.9365183518       31.6442470884
  C        -1.9785915793       13.6975783708       32.7397453436
  H         5.5209046150       11.9349578687       19.8795524579
  H         4.7470422505       13.5919322072       19.6999322345
  C         6.1431021907       13.1109934793       18.1718313182
  H         3.5063805038        6.7125538893       16.0170615210
  C         3.5867878479        8.3329100070       14.7769720728
  H         3.1190805196        9.1982984925       28.8225443199
  H         2.1997616952        8.9159632089       30.1009005998
  C         3.6348624426       10.4569836378       30.4901078923
  H        -3.8440882701        8.6353815220       26.4972559094
  H        -4.4787582337        9.0474194058       28.0668676903
  C        -5.5230101367        9.9825747111       26.3515438268
  N        -1.4701295563       16.8694551049       30.6136602126
  C        -1.9692138883       16.5284493994       32.8169667542
  C        -2.2173214720       14.4153130498       33.9318742202
  H        -1.9806689940       12.5806077073       32.7460477882
  H         7.1483934637       12.6113014716       18.0376836500
  H         5.3165204270       12.7022982410       17.5066682720
  H         6.2250641182       14.1887373441       17.9559311094
  S         3.8431432920        9.9160692414       14.2927927452
  C         3.7549825119        7.3300767773       13.6005675465
  H         3.7075518192       11.5454202182       30.2642614654
  H         3.1997371035       10.3898376404       31.4162395158
  C         5.0132363589        9.8826052676       30.5171192449
  H        -5.9584672813        9.3465749279       25.5675689522
  H        -5.2788515612       10.9886257963       26.0194659146
  C        -6.6969010022        9.9934409951       27.2302631785
  S        -1.5490670396       18.3748694501       31.2353021245
  N        -1.9782218949       17.9357526868       32.7396314488
  C        -2.2991208412       15.8730086360       34.0241531787
  H        -2.3430119392       13.8293094960       34.7902521976
  C         4.1260002202        9.3230213113       12.6660854928
  N         4.0227587398        8.0346576946       12.4841997087
  O         3.6007936391        6.1196820257       13.7159711836
  H         5.7187015258       10.5481021545       31.0697295213
  H         5.4765364844        9.7995295161       29.5186089455
  C         5.0061196686        8.5401170210       31.1502261623
  H        -6.9190414141        9.0170293781       27.7171292645
  H        -6.3701208850       10.6197013436       28.0484135838
  C        -7.9392786295       10.5395611039       26.6145119603
  C        -2.6573793712       16.5670060850       35.2022621328
  S         4.4133349928       10.2942277736       11.2459000249
  C         4.0370284630        7.3678280612       11.2114770998
  H         5.8609360149        8.5339450935       31.8400578177
  H         4.1751868683        8.4030379207       31.8803209158
  C         5.3348737262        7.4096496216       30.1897740617
  H        -7.7622951103       11.4401765728       25.9957710450
  H        -8.4409644533       10.8135561357       27.5175297310
  C        -8.7280796111        9.5422436756       25.7266163603
  H        -2.5961428371       17.6237855990       35.1402657546
  C        -3.2041099760       16.1257890537       36.3666646549
  H         4.5801602192        7.8853650531       10.5005761576
  H         4.6959555916        6.4738960560       11.3258441712
  C         2.6714219029        6.8863565668       10.7369211105
  H         6.2532374294        7.6402845369       29.5836194435
  H         4.5223335533        7.3993117532       29.4519622097
  C         5.6014589270        6.0876044315       30.9032879743
  H        -8.5547903737        9.9162373232       24.6890587290
  H        -8.2480387975        8.5086540207       25.6889375418
  C       -10.1928731861        9.3359695019       26.1573078042
  S        -3.7623643159       14.6045944516       36.8895826365
  C        -3.3104531876       17.2035898878       37.4656344584
  H         2.8126893443        6.4988092223        9.7207643240
  H         2.2278733075        6.1634437900       11.4997428769
  H         2.0479869143        7.7301122048       10.4611787696
  H         4.6889096081        5.5465818082       31.1547010082
  H         6.1342486111        6.2545505423       31.8125965374
  H         6.2738445107        5.4993372468       30.2401043753
  H       -10.2244171247        8.6968390034       26.9845776102
  H       -10.7664161260        8.9127727358       25.3727777224
  H       -10.6659320585       10.3237767885       26.4040158188
  C        -4.1084679302       15.3678231208       38.4582311249
  N        -3.8891011649       16.7167467660       38.5988700260
  O        -2.9682395869       18.3576629017       37.2920480567
  S        -4.7216752344       14.4244286151       39.8439794419
  C        -4.1120012328       17.4267979414       39.8084067880
  H        -4.4735166187       18.3578635251       39.5364803167
  H        -4.9080133065       16.9120037990       40.3220434714
  C        -2.7264709120       17.5525453456       40.5327861567
  H        -2.3832347040       16.4777465751       40.6152909542
  H        -1.9886967546       18.0903790603       39.9674229220
  H        -2.7891716380       17.9877670322       41.5245119695
