352
 i =    77400, time =    77400.000, E =        25.1422587728
  H        10.4345860283        6.5608326118       32.1814369317
  C        11.3677832933        6.0698658801       32.3976919874
  H        12.0588064113        6.8628517940       32.7220238548
  C        11.8351887938        5.2797269897       31.2137253632
  C        11.1797044601        5.2263303502       33.6849177611
  C        10.6454894793        4.7576050611       30.3479100380
  H        12.5056320337        5.8819529343       30.6080648564
  H        12.4432600591        4.4426323858       31.4989272363
  H        11.1052875198        4.1588240481       33.4158488334
  H        12.0280392862        5.3061158707       34.3359460751
  H        10.2915592856        5.4621158952       34.2051628523
  C        10.2024074284        5.8071786407       29.3213087220
  H         9.8648574963        4.3253042208       30.9089310351
  H        10.9911028955        3.9094571291       29.7830595925
  C        10.5518383955        5.4235537891       27.8529385194
  H         9.1560675954        6.0356458398       29.4294725679
  H        10.6436895391        6.7183739661       29.5768790794
  C         9.5395859434        4.6108740289       27.0545792647
  H        11.5816580410        5.1129727606       27.7942280219
  H        10.6217764221        6.3916993504       27.3004029924
  C         8.3442236102        5.4638791535       26.5180323394
  H        10.0412369160        4.2481297472       26.1389124006
  H         9.2791321602        3.7431368018       27.7809819719
  C         7.2908399386        4.5989990798       25.7631792230
  H         7.8680752134        6.0997248001       27.3107450228
  H         8.6723613572        6.1827875305       25.7836451992
  C         7.0417766665        3.1817363918       26.4188198916
  C         7.8273629826        3.8553727066       24.5241875084
  C         5.8558860894        5.2380680207       25.3375887909
  C         7.3496262536        2.1342542529       25.5583562113
  C         6.6055211333        2.7904534183       27.7089400860
  C         7.7960007615        2.5388758999       24.3522493262
  C         8.2467197007        4.5555500515       23.4330676487
  H         5.3120768286        4.4561853312       24.8129504292
  H         5.9913920131        5.9960824578       24.6456923241
  C         4.9141655975        5.6089904449       26.4702164774
  S         6.9090668507        0.5487304988       26.3100250299
  C         6.5167956687        1.4490688488       27.7608717032
  H         6.5707833452        3.4602102011       28.5668617076
  C         8.1033615608        1.9161236734       23.1836359914
  H         8.2837080551        5.5798975991       23.5454912288
  C         8.4279480199        3.9476323310       22.2132030033
  H         5.2358338389        4.9572571988       27.3814123755
  H         4.9785852382        6.5947607098       26.7722688854
  C         3.4663898013        5.3676668726       26.0488504943
  C         6.1695530715        0.7529328825       29.0337861996
  C         8.4441709233        2.6135612520       22.0303777402
  H         8.0362684149        0.8559976756       23.1145386764
  C         8.8112502543        4.3832061014       20.9506457779
  H         3.2297863518        4.2988665058       25.8646552347
  H         3.1834632937        5.8831834584       25.1598164403
  C         2.3656616384        5.7263230302       27.0532056176
  C         6.2539843650       -0.6267443131       29.3144722647
  C         5.5681794290        1.4813211765       30.1485816693
  C         8.7336375552        1.9518136599       20.7655826153
  C         9.0076190811        3.3281806114       20.0857365220
  S         9.1292163018        5.8771064943       20.1846111883
  H         1.4710681237        5.6108746443       26.4038150109
  H         2.4144782718        6.7443864973       27.3788611164
  C         2.2272617395        4.7126025584       28.1742683470
  N         6.5779929147       -1.6128845644       28.3163448801
  C         5.8322072260       -1.1794388733       30.5501133121
  C         5.2111552377        0.9858574179       31.3716628324
  H         5.2053576357        2.4794791071       29.9598991751
  C         7.6152769326        1.1935828250       20.1775713676
  C        10.0119198928        1.1181674777       20.7917533059
  C         9.3185439578        3.7230329454       18.7571733911
  C         9.4444915517        5.0791768063       18.6214213922
  H         1.4064058702        4.0272905291       27.9624013707
  H         3.0701412375        4.1019173968       28.2989584171
  C         2.1352569558        5.4773747929       29.4950180256
  S         6.4297693820       -3.0712970303       29.0991605217
  N         5.9403421750       -2.5716561249       30.5781759346
  C         5.4658278314       -0.4261238640       31.6689479158
  H         4.6485584794        1.6353585788       32.0671318769
  H         7.4124911684        0.3705226848       20.7509541591
  H         7.9161898621        0.7674396612       19.2075463585
  C         6.3952284076        2.1167440148       19.9112574781
  H        10.2687817255        0.6688105120       19.8003726109
  H         9.8962032362        0.3413785483       21.5250267078
  C        11.2043068723        2.0236063919       21.1658950444
  H         9.5294661667        2.9210795204       17.9976554740
  C         9.8321553575        5.7862982311       17.3823205005
  H         1.4568337139        6.3405998435       29.4152338572
  H         3.1020074000        5.8597641667       29.8262490639
  C         1.5889882023        4.7747456856       30.6691338235
  C         5.2392679862       -1.0066604143       32.9819045050
  H         6.7170131658        2.9109038004       19.3127749587
  H         6.1099397576        2.6448920482       20.8087426269
  C         5.1464516010        1.2909565441       19.4172358061
  H        11.0456581174        2.5072700305       22.1461881679
  H        11.3448200343        2.8417959973       20.4386457212
  C        12.4231322429        1.1437871160       21.2900091413
  C         9.9099190055        7.2231145602       17.2473030017
  C        10.1854833266        5.0442947569       16.1478333017
  H         1.0413417218        5.4281734011       31.2258049852
  H         0.8987580061        4.0007516691       30.3338212448
  C         2.6408372828        4.1851769547       31.5824963053
  H         5.1908557636       -2.0834489349       33.0268763967
  C         4.9439319575       -0.5215087300       34.2464277041
  H         4.1936525785        1.7319688170       19.6054004205
  H         5.1040579772        0.4063640873       20.0794917866
  C         5.0344687429        1.0646133717       17.9252884077
  H        12.2265198062        0.4297398115       22.1197030929
  H        12.5800741084        0.6033069849       20.3779850576
  C        13.6378298459        1.9488067708       21.6631128636
  N         9.7107946443        8.1167963087       18.2832088271
  C        10.2276084861        7.8985853489       16.0472119324
  C        10.4706141847        5.6863868289       14.9570850264
  H        10.1912305965        3.9339124927       16.2125058319
  H         3.2130476785        4.9256362572       32.0958524994
  H         2.0564220898        3.6964748900       32.3760951853
  H         3.2882939722        3.4692019486       31.1041719272
  S         4.7523595715        1.1370658220       34.6271484034
  C         4.6616214501       -1.4199447637       35.3959897971
  H         5.2186350474        2.0091230397       17.3740534103
  H         5.7195068065        0.3181514842       17.5213567891
  C         3.6194306201        0.6994065913       17.4409862522
  H        13.4245657240        2.9700726659       22.0497580935
  H        14.1232952555        2.1196317959       20.7180598241
  C        14.6546171279        1.3950952093       22.6370141558
  S         9.8208052383        9.6373580230       17.7366608315
  N        10.3543081625        9.2971997677       16.2313392163
  C        10.4922859130        7.1960865482       14.8513004519
  H        10.6446437454        5.1356309945       14.0022655879
  C         4.1508551159        0.5982675066       36.2349294634
  N         4.2380044003       -0.7006713255       36.4047371988
  O         4.8490167920       -2.6838124499       35.3144950923
  H         3.6210903893        0.5870844047       16.3310451955
  H         3.0007256962        1.5503393339       17.7195941286
  C         3.2297587678       -0.6562100052       18.0410041958
  H        14.2279322357        0.6550322258       23.3149753412
  H        15.2663426010        0.7656717325       22.1049882744
  C        15.4244363270        2.5119074240       23.4014157778
  C        10.7205768038        7.9533253728       13.7010226323
  S         3.8188954470        1.6606111409       37.7060642248
  C         3.8670252705       -1.3763529308       37.5887938426
  H         4.1135242350       -1.1782802252       18.3535378375
  H         2.8546744322       -0.4460308087       19.0241904799
  C         2.2826281007       -1.6001379531       17.2176397387
  H        14.8054313610        2.8645703331       24.2181003005
  H        15.5867726481        3.3780077890       22.6828062942
  C        16.7796781616        2.1772037708       23.9009418419
  H        10.2857406889        8.9258243183       13.7141332825
  C        11.3642547102        7.7432223363       12.4674336341
  H         3.1177355827       -0.8595226706       38.2115689876
  H         3.3054149397       -2.2908310927       37.3708385353
  C         5.1181028478       -1.7612988797       38.4468248250
  H         1.6875639301       -0.9375840027       16.5652850493
  H         1.5547937798       -2.1319197233       17.8399113088
  C         3.0944079264       -2.6441180924       16.3961902049
  H        17.1141081760        2.9278234714       24.6913575907
  H        16.7192033370        1.3003599745       24.4102190548
  C        17.6994750731        2.0316533604       22.7602763136
  S        11.9951888661        6.2395777221       11.8832191859
  C        11.3604386587        8.8749002787       11.5227096416
  H         5.0543256064       -1.7444782623       39.5836393171
  H         5.5865114236       -2.7430957904       38.2238535043
  H         5.8547209288       -0.9622993148       38.2271135267
  H         3.7272331685       -2.0537333192       15.7470004041
  H         2.4623176361       -3.1925893329       15.7524263225
  H         3.8245416872       -3.2294254923       16.9741019413
  H        17.6695474730        2.8241588039       22.0235893402
  H        17.4173630346        1.1594012982       22.1583975705
  H        18.7448633177        1.8127083810       23.0528198649
  C        12.2478195253        7.1481791675       10.3928992997
  N        11.9481491318        8.4527599663       10.3863913163
  O        11.1066481137       10.0094355901       11.7536635048
  S        12.8775319362        6.2125730835        9.0290185012
  C        11.9990357663        9.1259314109        9.1454108479
  H        12.2214582486       10.1546145433        9.3671922684
  H        12.9028195082        8.8623646413        8.6779270751
  C        10.6650515880        8.8435160048        8.3047274411
  H        10.0938831717        8.1319706972        8.9567817594
  H        10.1043557936        9.7854861739        8.1955761306
  H        10.9345710603        8.4731244766        7.2932219330
  H        -3.5628159551       14.2119188528       16.2299579693
  C        -3.0596672895       13.2800568524       16.3735272014
  H        -3.7829654632       12.5640046425       16.7486985962
  C        -1.9333509315       13.6084877374       17.3214606776
  C        -2.5720957007       12.7403286559       15.0952667951
  C        -2.3535973247       13.4226120070       18.7550512619
  H        -1.0715243368       12.9771873533       17.0801139154
  H        -1.6048637755       14.5830248268       17.2806069563
  H        -1.9238705028       11.8943322772       15.3423807363
  H        -3.4151474617       12.3619525291       14.4660855203
  H        -2.0599222979       13.5266088856       14.4349634341
  C        -1.2905044596       13.7256249528       19.8086194300
  H        -2.7434326990       12.3906826421       18.8081298147
  H        -3.1548608797       14.0943329891       19.0579015316
  C        -1.8511625968       13.6277516768       21.2880435147
  H        -0.4177552751       13.0588143385       19.8152586823
  H        -0.8559561609       14.7356156722       19.6802388306
  C        -1.0336349469       12.8135006079       22.2396707816
  H        -2.8010660719       13.1795722614       21.3601295216
  H        -2.1387598515       14.6367223073       21.6141879326
  C         0.1534189383       13.6420623774       22.7648598997
  H        -1.8099239249       12.4771994657       23.0261609238
  H        -0.6710696564       11.9139943785       21.7846547236
  C         1.2287050806       12.8165543669       23.5407317627
  H         0.6136171657       14.0159021511       21.8734540792
  H        -0.1836724651       14.5129225387       23.2218422045
  C         1.5611886479       11.5161538036       22.7933788876
  C         0.7197752800       12.0978625656       24.6861230360
  C         2.5671387314       13.6129293894       23.7197762982
  C         1.1975309274       10.4262837914       23.5690621336
  C         2.0896881096       11.0958263386       21.5648376523
  C         0.6228975405       10.7527107930       24.7326950513
  C         0.3952013055       12.7885501778       25.7968582766
  H         2.6460120806       14.4626431532       23.1617278954
  H         2.4191932267       13.9378688812       24.7054710498
  C         3.9175470831       12.8354142416       23.6776957018
  S         1.5884942868        8.9199550475       22.7985893908
  C         2.1600085698        9.7392574179       21.3786219718
  H         2.3279992862       11.9080031320       20.8323310163
  C         0.1772973682       10.1352390861       25.8594080807
  H         0.4597918448       13.8418886557       25.5793609234
  C         0.0118915037       12.1456072193       26.9382307416
  H         4.0804736386       12.4683029475       22.6741050742
  H         3.7786655654       11.8816276383       24.3230796106
  C         5.1224242923       13.7259227225       24.1264674086
  C         2.6511380667        9.0562716403       20.1101590758
  C        -0.1053514472       10.8304461128       27.0294441938
  H         0.1945927691        9.0324798441       25.9449524228
  C        -0.3573839006       12.5342658805       28.1938295435
  H         5.7597878740       13.2402836029       24.9301178655
  H         4.7007622454       14.6388909016       24.6024718862
  C         6.1267813859       14.0260298996       23.0367766711
  C         2.6018498079        7.6320570640       19.9087650033
  C         3.1634965405        9.9284621710       19.0013085981
  C        -0.4423538806       10.0548256798       28.3334615125
  C        -0.6976309705       11.4443584559       28.9696708357
  S        -0.7544082772       14.0684495973       28.9262669654
  H         6.8040638879       14.7498056615       23.3666815307
  H         5.6272279337       14.4114254201       22.1180290632
  C         6.8993820713       12.8400360931       22.4649583528
  N         2.2361509195        6.6312402535       20.8083205167
  C         2.7927503781        7.1415012304       18.6469214297
  C         3.3878936503        9.3652718464       17.7600612657
  H         3.3250026047       10.9702050618       19.0700456001
  C         0.7902638961        9.2499532972       28.8574786241
  C        -1.8016779692        9.2204160923       28.2023213859
  C        -1.1511057816       11.8246302403       30.2395060933
  C        -1.2588889628       13.1863449593       30.3912780898
  H         7.7157289591       12.4446493197       23.1395166833
  H         6.1902642835       12.0973683631       22.4302672523
  C         7.4114475604       13.0408414377       21.0213149887
  S         1.9958304890        5.2684620483       19.9819776047
  N         2.3747007870        5.7937039249       18.4927659043
  C         3.1415538526        7.8797069932       17.5053463026
  H         3.7421743124       10.0728645746       17.0293509977
  H         1.1059493892        8.6840920789       27.9570914467
  H         0.5729845624        8.4020353848       29.5361395236
  C         2.0002709064       10.0473655520       29.3358517981
  H        -1.7104711855        8.2409750616       27.6840752846
  H        -2.2117319748        8.8510381889       29.2227936477
  C        -2.9335297906        9.9780094451       27.5241145575
  H        -1.3332386403       10.9892640174       30.9388162572
  C        -1.5868412804       13.8811411316       31.6726146545
  H         8.0794374019       12.2857436903       20.6892091655
  H         7.9074257934       13.9347370341       20.9797348618
  C         6.2863033275       13.0615643698       19.9812403294
  C         3.2568288014        7.2372016009       16.2419362755
  H         2.7074897474       10.4152620869       28.5672725923
  H         1.6871394836       10.9691981844       29.8066197107
  C         2.8796315522        9.1853395829       30.3315970044
  H        -2.6584059236       10.3897155998       26.5147335332
  H        -3.1509079553       10.7873667049       28.2223129643
  C        -4.2224640451        9.1007274617       27.3301256314
  C        -1.6617170042       15.2758517497       31.9163385540
  C        -1.8420446642       13.0497675322       32.8783722549
  H         5.8273960792       12.1042519762       19.9012189149
  H         5.4149009854       13.7107538359       20.1737710073
  C         6.8515181241       13.5231425691       18.5749993690
  H         3.2532905339        6.2027929662       16.2495478836
  C         3.4077024940        7.7484973277       14.9948447437
  H         2.9526240425        8.1391286665       29.9899702887
  H         2.3684508758        9.1731748083       31.3945876118
  C         4.3335239267        9.5021843326       30.3441335836
  H        -3.9332397085        8.3692224869       26.5261309264
  H        -4.5236280551        8.6436698757       28.2407461048
  C        -5.3422456465       10.0017440022       26.8721321725
  N        -1.4075869170       16.2073882403       30.9539189268
  C        -1.8435979173       15.9141689259       33.1161450773
  C        -2.1923283636       13.7203089933       34.0525744728
  H        -1.7467816790       11.9859722854       32.8044992402
  H         7.9166634555       13.2277631717       18.3453894514
  H         6.1726613308       13.0216774227       17.8775227594
  H         6.6421429337       14.5952635830       18.4036263242
  S         3.4914922168        9.3683191606       14.5551277043
  C         3.6986163140        6.7710823398       13.8895921625
  H         4.8189658569        9.2161007535       29.4223752048
  H         4.4439475620       10.5766531037       30.4442643165
  C         5.0265689067        8.8546581074       31.5413263201
  H        -4.8541495973       10.9171778421       26.5172359105
  H        -5.8021619459       10.4287928563       27.8042617448
  C        -6.3779784130        9.5605570008       25.8689656855
  S        -1.3711152839       17.7187876687       31.5505004802
  N        -1.7993716874       17.3592914725       33.0843707610
  C        -2.2177008246       15.1955063109       34.2348899375
  H        -2.5378455080       13.2418853383       34.8814460059
  C         3.9809724583        8.8218307827       12.9251837728
  N         4.0624152533        7.4682767726       12.8220192014
  O         3.7583755630        5.5638209803       14.0674998697
  H         4.5411535374        8.9660537936       32.5410908433
  H         5.9468933211        9.4443368691       31.7260719768
  C         5.4837053743        7.4136099045       31.2914379527
  H        -6.0067922305        8.8850127777       25.0767557668
  H        -7.1035643863        8.8988056046       26.4071429430
  C        -7.0768583862       10.7477567818       25.2782680343
  C        -2.5073421139       15.9155734420       35.4154648089
  S         4.5188226106        9.8889525624       11.5935842479
  C         4.2210899155        6.8098619575       11.5390573527
  H         4.8907658404        6.9484791111       30.5831670607
  H         6.5089802433        7.2870329964       30.8739011895
  C         5.4481922067        6.6019911481       32.5811144772
  H        -6.2788711711       11.1707751487       24.6333700654
  H        -7.5047637332       11.4476788470       26.0054992072
  C        -8.1545868420       10.2424022551       24.3568989561
  H        -2.2540490289       16.9866695789       35.3547759274
  C        -2.9790111528       15.5821048195       36.6462135576
  H         4.8790682810        7.3062104751       10.8860151636
  H         4.7402422630        5.8491320250       11.5919856713
  C         2.8009024866        6.6359320140       10.8498580877
  H         4.4666029641        6.6092584214       32.9776757877
  H         6.0219280380        6.9479060710       33.4133268734
  C         5.9294680595        5.1669320555       32.4430713420
  H        -8.2664635362       11.1631885640       23.7104483140
  H        -7.7859880486        9.4252020715       23.8282781946
  C        -9.4644199579        9.8458180248       24.9390531676
  S        -3.5257977170       14.0299673075       37.1208871746
  C        -3.2659835501       16.6165329663       37.6595395468
  H         2.7631466314        5.8270014907       10.0872982997
  H         1.9448325183        6.4839357955       11.5968047001
  H         2.5842229043        7.5228589761       10.2540953873
  H         5.8776199588        4.8590907564       31.3303791531
  H         5.2847335355        4.4593766897       32.9520363985
  H         6.9716343123        5.0804846962       32.6951713272
  H        -9.9477999020       10.5041801318       25.7185207078
  H        -9.3167670865        8.9099647072       25.4074030671
  H       -10.1489793554        9.7589931754       24.1519761368
  C        -4.2855279122       14.7612238189       38.5716961859
  N        -4.0276739186       16.1121301024       38.6508290884
  O        -2.9888301197       17.7938458439       37.5289213835
  S        -5.2261109059       13.9417643767       39.7857315898
  C        -4.2104551850       16.8071158766       39.8953006390
  H        -4.3111861899       17.8332120984       39.6626401971
  H        -5.0769232562       16.6119023701       40.4146758003
  C        -3.0166497537       16.5586717546       40.8634581025
  H        -3.0786783301       17.3660999316       41.6130539197
  H        -3.0505084809       15.6132282251       41.4350445895
  H        -2.1005575638       16.6912608796       40.2818257876
