352
 i =    15000, time =    15000.000, E =        24.2422652016
  H        11.3064277892        7.2451880140       32.2130859461
  C        11.4327363142        6.1570280997       32.2110292942
  H        12.4863196552        5.9022447449       31.9395730340
  C        10.5205342076        5.3683914471       31.2321427597
  C        11.0150760453        5.6490950014       33.5391972328
  C        11.2069390123        5.2581206435       29.8345778149
  H        10.4064494651        4.3310638732       31.5332090719
  H         9.5521276108        5.9261689983       31.0285074125
  H        11.6844965224        5.9780296424       34.3335591911
  H         9.9818294342        5.6938704908       33.8112555564
  H        11.2177923234        4.5632754142       33.6480961083
  C        10.1496636917        4.9712138412       28.7581548332
  H        11.9225174090        4.4489591646       29.9325177075
  H        11.7179642248        6.1750777464       29.5617326672
  C        10.6724476469        5.2468934614       27.3660011227
  H         9.9866969096        3.8867251491       28.8061395684
  H         9.1960872086        5.4872996228       28.9794388305
  C         9.7155192397        4.7769689859       26.2880687171
  H        11.5445642735        4.5839587102       27.2627343207
  H        10.9867670530        6.2709664018       27.2163989154
  C         8.5243660113        5.6637171619       25.9962800901
  H        10.1090457542        4.6606880834       25.2445938176
  H         9.4630291306        3.7817784059       26.6853321798
  C         7.3281049624        4.8635196855       25.2788870542
  H         8.0775449888        6.1389727329       26.8814933560
  H         8.9110840783        6.4580662190       25.3136077429
  C         7.0393388187        3.5038548204       25.9761856152
  C         7.7362746187        4.0690372141       24.0643130088
  C         6.0054390217        5.7280432080       25.1352332500
  C         7.3348252950        2.3813723811       25.2663259244
  C         6.4396660012        3.1705454264       27.1298390659
  C         7.8090279858        2.7206683991       23.9968319916
  C         8.0744207038        4.7704815011       22.9192687992
  H         6.3143147653        6.5534229354       24.4179515047
  H         5.7444706818        6.1780996499       26.1165052851
  C         4.8846446679        4.8731023158       24.5654255901
  S         6.9719701561        0.9048846246       26.1065622289
  C         6.4117503063        1.8411442271       27.4053398081
  H         6.0335810187        3.9170865751       27.8321448956
  C         8.2683048104        2.1130213761       22.8799954451
  H         7.9876903443        5.8321464831       22.8621854267
  C         8.5912605157        4.1655665162       21.7954313488
  H         5.1669820830        4.6890025290       23.4612725229
  H         4.8459434839        3.9057611957       25.0909627446
  C         3.5179809110        5.6183145725       24.5897347044
  C         5.8723412464        1.2530706018       28.6800845961
  C         8.6353602350        2.7966092755       21.6737057063
  H         8.3860485750        1.0728591820       22.8098162247
  C         9.0582193910        4.6214090611       20.5808518456
  H         2.7669074329        5.0564802632       24.2102936653
  H         3.6707208430        6.5383933430       23.9702290011
  C         2.9322459653        5.9488013431       25.9590640453
  C         5.7841885250       -0.1272273480       28.8791341156
  C         5.3810857867        2.1509134023       29.7858694121
  C         9.0738186857        2.0692962795       20.4019905411
  C         9.2905073959        3.5140695691       19.7699993414
  S         9.1592682232        6.1514327374       19.7642611623
  H         2.1064858513        6.7168649503       25.9375265301
  H         3.7648227527        6.3632148378       26.4940741956
  C         2.4255009339        4.7188374172       26.7369239848
  N         5.9528089332       -1.1674743684       27.9249121521
  C         5.4699716285       -0.6302238985       30.1135427589
  C         5.0242525697        1.6710583396       31.0308277108
  H         5.3521946085        3.2828071901       29.5680538081
  C         7.9065681273        1.3776421362       19.6975693421
  C        10.3325845014        1.1856821685       20.4278298706
  C         9.6962024414        3.9616184968       18.4647983906
  C         9.6683538304        5.2982567351       18.3015154443
  H         1.8218942281        3.9309923449       26.2685841015
  H         3.2783922391        4.1380628866       27.0980379279
  C         1.5610176804        5.0925897787       27.9344565987
  S         5.8459605760       -2.6283594119       28.6441338388
  N         5.5119940570       -2.0820627301       30.0996259060
  C         5.1216693745        0.1507263683       31.2968588585
  H         4.7699028949        2.3039277893       31.8303807139
  H         7.3075691888        0.6312193761       20.2502292806
  H         8.2088254478        0.9316502100       18.7694516182
  C         6.7537946777        2.3108309581       19.2690767458
  H        10.6711523606        1.3328890357       19.4370062592
  H        10.1636497370        0.1432779884       20.4794571843
  C        11.4229994430        1.6997575688       21.3741959341
  H         9.9369616953        3.2255484486       17.7038970318
  C        10.0774758150        6.0784381417       17.1027972171
  H         1.1593294463        4.1269337945       28.3366693529
  H         0.7570124007        5.6768104270       27.5658777471
  C         2.2039250403        5.5635889510       29.2243300861
  C         4.8986594353       -0.5380505545       32.5799349390
  H         7.0872549368        3.0390103364       18.5888056385
  H         6.4114452377        2.9015209799       20.0912859831
  C         5.5074100686        1.6354013759       18.5925221235
  H        11.1638205837        1.6373006425       22.4234829515
  H        11.4128844042        2.7829285123       21.2022179103
  C        12.8562450912        1.1596165344       21.0373675310
  C        10.1457404124        7.4852310989       16.9483724246
  C        10.3862428394        5.3514586059       15.8770872067
  H         3.1387564072        5.0789091265       29.3837178736
  H         2.3085215130        6.5778262701       29.0690733305
  C         1.3047961413        5.4470184456       30.4415740083
  H         5.2614265371       -1.5659523881       32.6265616981
  C         4.5721469311       -0.1670216837       33.8567489364
  H         5.0427159739        0.8584546234       19.2786543917
  H         5.7977481605        1.0488914719       17.7224600070
  C         4.4620363994        2.6041531059       18.1545024610
  H        13.1841161175        0.3945876474       21.7378655910
  H        12.8188072357        0.6882640897       20.0400948227
  C        13.9621977147        2.2365836425       20.9422747549
  N         9.8300721254        8.4027141806       17.9460184759
  C        10.4831500866        8.1452998796       15.7825768450
  C        10.6082293660        5.9889348889       14.6444413943
  H        10.3578096857        4.2172931583       15.8898544200
  H         1.1894699854        6.5069695233       30.7704911390
  H         0.3838472857        4.8938571258       30.1830784502
  H         1.9409937409        4.8945354704       31.1407641621
  S         4.2095481389        1.4833474763       34.2971836390
  C         4.4121816257       -1.1490643434       34.9532474996
  H         4.3263051775        3.4004004935       18.7761578004
  H         4.6964617477        2.9808691936       17.1352506580
  C         3.0442474495        1.8908317389       18.2452373291
  H        13.5921678527        3.0894057823       20.3763687039
  H        14.8294391228        1.8315019443       20.4326053549
  C        14.4120641348        2.5692866118       22.4054527035
  S        10.1753644181        9.9161722594       17.3899396314
  N        10.6377593462        9.5205649118       15.9270351611
  C        10.6738343385        7.4846850716       14.5719610826
  H        10.7316717218        5.4225934589       13.7063575593
  C         4.0248915638        0.8727210120       35.9825739469
  N         4.0033961827       -0.4644710949       36.0767027796
  O         4.7526889029       -2.3212028504       34.9376472073
  H         2.3752953740        2.6966522045       18.0503478724
  H         2.8426845609        1.5982366018       19.2760015527
  C         2.7750019365        0.7468698456       17.2565151176
  H        15.0677466941        3.4404766564       22.3818965037
  H        13.5822958984        2.8035253778       23.0946722679
  C        15.2109031662        1.4053501177       22.9947367183
  C        10.9357084685        8.2365910124       13.3981536254
  S         3.5022561440        1.8442197228       37.3778548389
  C         4.1364458997       -1.2093866738       37.3116330615
  H         1.8568510586        0.9136627499       16.6070195074
  H         3.5963736456        0.6529454129       16.5633783679
  C         2.4866595619       -0.4364499633       18.0808447598
  H        15.4653967977        0.7272607257       22.2129140878
  H        14.5269659149        0.8668208916       23.6701080238
  C        16.5051704861        1.6912847097       23.7427469858
  H        10.6491593109        9.2336016424       13.4742946769
  C        11.5774866201        7.9134431918       12.2086790296
  H         3.6393611998       -0.6413668716       38.0867707060
  H         3.6761727267       -2.1993888498       37.1523700841
  C         5.6199732854       -1.2414690143       37.7333817909
  H         1.7559014984       -0.1322569382       18.9178801985
  H         3.3429581064       -0.8204281981       18.5804856025
  C         1.8834836118       -1.6785964303       17.3101636843
  H        16.4823478640        2.4879053834       24.4615030415
  H        16.5781002723        0.6718968187       24.2689115363
  C        17.6646269612        1.9415641585       22.8188799834
  S        12.0392387990        6.3094773853       11.7381067130
  C        11.7022554710        8.9381338516       11.1925078088
  H         6.3347966803       -1.1578813198       36.9216211237
  H         5.8125742973       -0.3045586142       38.3041565937
  H         5.7951940667       -2.0698016924       38.4908411615
  H         2.5877322050       -2.0379908707       16.6173121880
  H         0.9940264305       -1.4226716834       16.8428386017
  H         1.6125049518       -2.5088628835       17.9607570196
  H        18.6136947963        1.9417219942       23.3804047081
  H        17.5820756713        2.9837944813       22.4185128459
  H        17.7792034597        1.3086262942       21.9878642400
  C        12.3987689438        7.0262328090       10.1618034573
  N        12.2014995021        8.3921507646       10.0366269218
  O        11.2900085634       10.0817160602       11.3895859892
  S        12.9824686395        6.1798255688        8.7237113093
  C        12.2803382537        9.1397528474        8.7972275849
  H        12.3685574612       10.2335528724        8.9698292250
  H        13.1085204517        8.8038772406        8.2331402966
  C        11.1003905474        9.0203595259        7.8777678126
  H        10.1976279858        8.9148140380        8.4783029721
  H        11.0597893730        9.8631173674        7.2164818819
  H        11.1504325469        8.1558339837        7.2897612608
  H        -3.2405676406       15.1834217044       16.2886058394
  C        -2.9985480692       14.1398779658       16.5958704219
  H        -3.8104112810       13.8611220626       17.2069963587
  C        -1.8722539245       13.9618138180       17.6732147479
  C        -2.7175145670       13.2336357144       15.4100273745
  C        -2.5192902187       13.7047068382       19.0912274896
  H        -1.2395720073       13.1569426829       17.4369687895
  H        -1.1169248211       14.7281746348       17.7612699517
  H        -3.4555883102       13.2686967312       14.6393334297
  H        -1.6945379024       13.5171793325       15.0885174730
  H        -2.5205808508       12.2220081906       15.8233768021
  C        -1.4183716275       13.4114894453       20.1330680090
  H        -3.1210890216       12.8333949548       18.8870597602
  H        -3.1395057123       14.5671151179       19.3229035597
  C        -2.0532328457       13.4324381020       21.5547667880
  H        -0.9966364168       12.4556611167       19.8830618430
  H        -0.5559722699       14.1028935264       20.0628662794
  C        -1.1690492203       12.9010647046       22.7205422999
  H        -3.0688809876       12.9483142069       21.4111731398
  H        -2.4171387881       14.4540501822       21.7694562650
  C         0.1427641391       13.7021589617       22.8543168221
  H        -1.6851263626       12.7770210326       23.6972620136
  H        -0.9051646686       11.8681952716       22.4599020851
  C         1.2408920715       12.8271993325       23.4681906264
  H         0.4532371450       14.1434461391       21.9121364796
  H        -0.1018226657       14.5560429331       23.4615289319
  C         1.5336293070       11.4981098670       22.7547532141
  C         0.8115760064       12.1044100518       24.6468008540
  C         2.5396592398       13.7199123101       23.7865190676
  C         1.2397803327       10.3946094860       23.5148705006
  C         2.0548060613       11.1146959106       21.4997202909
  C         0.7006640488       10.8069835372       24.7152807029
  C         0.3160799693       12.7996608419       25.7787848106
  H         2.6398729708       14.1508994016       22.7722729158
  H         2.3788440306       14.5074241437       24.5179005564
  C         3.9029350357       13.0000029238       24.1327123735
  S         1.6013461964        8.9443740341       22.6914889488
  C         2.1901178458        9.7660344760       21.3444869490
  H         2.1863687854       11.8741331976       20.7500915256
  C         0.2981208931       10.1823496730       25.7980996604
  H         0.3871742546       13.9154511948       25.7541122096
  C         0.0272848472       12.1979667258       26.9483642144
  H         4.0776330406       11.9957089642       23.7164775227
  H         3.9478266293       12.7020531191       25.2095222176
  C         5.1467795538       13.8626434426       24.0687169415
  C         2.5043963627        9.1077054857       20.0900115541
  C        -0.0777228919       10.8783368942       27.0081719217
  H         0.3743144723        9.1591714966       25.7659149732
  C        -0.4261023365       12.5675097248       28.2425961490
  H         5.9314318570       13.3629446371       24.5415896482
  H         5.0134924003       14.9170476767       24.5272550926
  C         5.6333066736       14.0855407999       22.6380891750
  C         2.4403293701        7.7572759207       19.7472683582
  C         3.0576130512        9.8889640157       18.9812793217
  C        -0.4217599969       10.1604456900       28.3042129604
  C        -0.7082559865       11.4490487786       29.0043657587
  S        -0.6766878753       14.0278848139       29.0870220100
  H         6.4917244282       14.6307147461       22.7995926795
  H         4.9595267317       14.7823048216       22.1260077570
  C         5.8585906850       12.8669623386       21.7621162064
  N         1.9585872764        6.7606410962       20.6282851158
  C         2.8231051041        7.2304307995       18.5503344778
  C         3.2989808236        9.4515479183       17.6987271684
  H         3.2383892883       10.9166336862       19.1252740286
  C         0.7693753621        9.3625152403       28.8771786964
  C        -1.7010080343        9.3165029781       28.1287261911
  C        -1.0235972941       11.7793782909       30.3092504638
  C        -1.0742443937       13.1534705107       30.4879752109
  H         6.1087887603       12.0623378800       22.4601042879
  H         4.9201168462       12.6075125687       21.2166808839
  C         7.0425797260       12.8832985120       20.7861572497
  S         2.0615759868        5.2918287020       19.9380831530
  N         2.6636999265        5.8134187175       18.5028278973
  C         3.1257994863        7.9753384939       17.3663298083
  H         3.4714302782       10.1969838622       16.8935725859
  H         1.0284111495        8.6027357920       28.1823068984
  H         0.3127468683        8.8372857423       29.6703109649
  C         1.9412477853       10.1112373595       29.4862317173
  H        -1.4472236159        8.5807768128       27.3598369131
  H        -1.9456255661        8.7746757704       29.0415958050
  C        -2.9262785760       10.1548319917       27.7703658514
  H        -1.3168672437       11.0255841707       30.9868689007
  C        -1.5330191398       13.8399803877       31.6971323970
  H         7.2666888089       11.7807138663       20.6162242144
  H         7.9031200230       13.3583022512       21.3406811734
  C         6.8147812249       13.4790336382       19.4340719370
  C         3.3281014336        7.3635510447       16.1080888010
  H         2.2987177320       10.8208208421       28.6893969709
  H         1.4106246018       10.7491401227       30.2516026699
  C         3.0391442292        9.2712137069       30.0994784324
  H        -2.7202935335       10.9135343346       26.9943393785
  H        -3.4125364989       10.7565925003       28.6030394909
  C        -4.1207435787        9.2790197566       27.2102701953
  C        -1.6476780444       15.2313441531       31.8000751891
  C        -1.7961003646       13.0226886372       32.8598108143
  H         5.9058325879       12.9871603099       19.0120943727
  H         6.4434244364       14.5547647545       19.4958034049
  C         7.9801675059       13.2277967574       18.4615090887
  H         3.1672916971        6.2449626650       16.1034169982
  C         3.6009335713        7.8706029907       14.8494183809
  H         3.4731020669        8.4531573392       29.5628922507
  H         2.6174704076        8.6214951573       30.9204382309
  C         4.0730429524       10.0964913583       30.7749407662
  H        -3.7314721748        8.5731484119       26.4793037109
  H        -4.4520191651        8.5969588725       27.9584469692
  C        -5.2637401845       10.1264215632       26.6754974547
  N        -1.4675705237       16.1717033622       30.7825705829
  C        -1.9975012738       15.9088234278       32.9610330045
  C        -2.1917349079       13.6765735522       34.0531611585
  H        -1.6186443463       11.9876008611       32.8599033315
  H         7.7477249109       12.5455932055       17.6754511067
  H         8.1915478927       14.1857876313       18.0271962028
  H         8.9143550664       12.7911421854       18.9656170256
  S         4.1531890569        9.4168765050       14.4169770765
  C         3.4294415789        6.9221030411       13.7083572708
  H         3.9024906896       11.1197904273       30.7130567641
  H         3.9435503859        9.9624913996       31.8407170294
  C         5.4982508239        9.7305274552       30.3671191777
  H        -5.0390168889       10.6499534083       25.7856650141
  H        -5.4504223441       10.9292913701       27.4393385817
  C        -6.5419451345        9.2747375467       26.4131982182
  S        -1.5907180589       17.6588911027       31.3999220072
  N        -2.0191066124       17.2750600642       32.9543537048
  C        -2.2669876066       15.1691845706       34.1654437737
  H        -2.3601630266       13.0443816708       34.9036080160
  C         4.1598541115        8.8656226318       12.7401462342
  N         3.8561148356        7.5300672355       12.5909476442
  O         3.3013089790        5.7183028920       13.7985289752
  H         6.1975108579       10.4287938115       30.8606383562
  H         5.7488019653        9.8684351049       29.3368666429
  C         5.9533245082        8.3731479837       30.8778803081
  H        -6.4807733851        8.8582708958       25.4053758643
  H        -6.4861212141        8.5094331419       27.1708827212
  C        -7.7241295391       10.3017066366       26.6519883115
  C        -2.5808209870       15.8476146399       35.3906956426
  S         4.7663952278        9.8845657227       11.4204839814
  C         4.0143677863        6.7437858534       11.3464542173
  H         6.7891116173        8.5531968833       31.5624754489
  H         5.2063834833        7.8985757916       31.4568383729
  C         6.2861960994        7.3807237638       29.7215202800
  H        -7.5237724228       11.2381457111       26.1440141546
  H        -7.7644636290       10.5330058274       27.6510516536
  C        -8.9783940588        9.6956529478       26.1036779834
  H        -2.5777407759       16.8478404335       35.2713810907
  C        -3.0877842431       15.4464977540       36.6011127169
  H         4.7802797805        7.1487758607       10.6609714801
  H         4.4021059848        5.8006389192       11.6705372815
  C         2.6788026188        6.5818973818       10.5267260584
  H         7.2133454513        7.7330396011       29.2334765673
  H         5.5341771357        7.5100984860       29.0042807999
  C         6.2244668441        5.8847954932       30.0566297219
  H        -9.2070407873        8.7351847302       26.5393325831
  H        -9.7702563047       10.3341566841       26.5250908179
  C        -8.9024350029        9.7819176850       24.6018932337
  S        -3.5261190624       13.8655205374       37.0445453013
  C        -3.3206111717       16.5644261655       37.5914157179
  H         2.6693115330        7.1275162923        9.6626872625
  H         2.4569283635        5.5385431551       10.2575966677
  H         1.8351493179        6.9041611367       11.1725218575
  H         6.4048278087        5.7198734788       31.1140652506
  H         6.9654988730        5.2441314172       29.4758932065
  H         5.2491980334        5.5444762054       29.7612926245
  H        -8.7101538242        8.7025627634       24.3597692667
  H        -8.1133612070       10.4002818132       24.2268652141
  H        -9.9424773615       10.0329278874       24.2874998952
  C        -4.0160594266       14.6420570050       38.6227850916
  N        -3.9781330894       15.9569972848       38.6183592038
  O        -3.1075247444       17.7683215817       37.4319162547
  S        -4.7948527277       13.8149981710       39.9203194925
  C        -4.2459577610       16.7520324177       39.8028944761
  H        -4.3466296456       17.8060875479       39.4903408307
  H        -5.2106317775       16.5045471506       40.2419342849
  C        -3.0327293969       16.7476489619       40.7862289337
  H        -2.6065398592       17.7011745465       41.1290579179
  H        -3.2060351504       16.1389544370       41.7028654343
  H        -2.2173091100       16.2743174273       40.3086583113
