352
 i =     9500, time =     9500.000, E =        23.5894055409
  H        11.4775689735        6.9020880301       32.4586748368
  C        11.4067745099        5.8122525894       32.4461661717
  H        12.4071378877        5.3823457795       32.3955159253
  C        10.4644217779        5.4485345919       31.2759607782
  C        10.8684277057        5.4419169356       33.7733457747
  C        11.0759492003        5.7448501961       29.9043969281
  H        10.1926398239        4.3307493508       31.2454566928
  H         9.6309130112        6.1689949463       31.3789511018
  H        10.0409981165        6.0798057319       34.1180005003
  H        10.5706106268        4.3906488919       33.8222658838
  H        11.6022299166        5.5229797591       34.5878924312
  C        10.1059883053        5.3180145974       28.7893411370
  H        11.9339013190        5.0432967714       29.7620577855
  H        11.4655561475        6.7593328603       29.7745219610
  C        10.5494255675        5.4860490456       27.3453343949
  H         9.8177890800        4.3305373531       29.0466435047
  H         9.2201797263        5.9201940512       28.9162049685
  C         9.5246387763        4.7778743010       26.4776545175
  H        11.5247685073        5.0605710040       27.1676748647
  H        10.7276191496        6.5309487827       26.9827649160
  C         8.3017169037        5.6382459692       26.0434579091
  H         9.9757262693        4.3722530763       25.5886140693
  H         9.1835499919        3.8829975269       26.9740557714
  C         7.1633704838        4.9128587638       25.3652669407
  H         7.9166113260        6.0284863190       26.9757591199
  H         8.6703566941        6.5281516496       25.4729179508
  C         6.7867340139        3.5714996756       26.1191914804
  C         7.6770714130        4.1078195102       24.1783793460
  C         5.8989196906        5.8118379999       25.1000078432
  C         7.1061324024        2.4942102697       25.3157401386
  C         6.1680936825        3.2332290986       27.3092520877
  C         7.7530600926        2.7957790854       24.1534805841
  C         8.2045767094        4.7862422930       23.0592778498
  H         6.2539271390        6.4889054887       24.3997018044
  H         5.7595992898        6.4008346427       25.9708881533
  C         4.6048208816        5.0411775310       24.8368745527
  S         6.5329919841        0.9929514489       25.9900723680
  C         5.9958359604        1.8654969966       27.4355477175
  H         5.8812609335        3.9718354642       28.0388942154
  C         8.2782112716        2.1961584434       23.0596117264
  H         8.1760428924        5.8584184239       22.9564293135
  C         8.6757222610        4.1627051390       21.9692909312
  H         4.6860570708        4.3274194359       24.0853470462
  H         4.5437201591        4.4974670953       25.7756986337
  C         3.3284428929        5.8597807592       24.7197956596
  C         5.4469609599        1.1871696844       28.6943720344
  C         8.7732452303        2.8565053789       21.8955230166
  H         8.2346006189        1.2345420250       23.0008871692
  C         9.1268946597        4.5856825360       20.7643476861
  H         2.6389628609        5.3103604297       23.9904145489
  H         3.4775254825        6.8159093844       24.2824012861
  C         2.6276356801        6.0130320581       26.1277210471
  C         5.6538579965       -0.1480093256       29.0720993027
  C         4.8888317506        2.0283306261       29.8057566662
  C         9.2121197789        2.1690252267       20.6436943227
  C         9.3848998769        3.5501668681       19.9296477717
  S         9.1343755765        6.1562440430       20.0236022097
  H         1.9306325763        6.8713497179       26.0857983351
  H         3.5046825469        6.4294361394       26.7670930999
  C         1.9832284708        4.8297208156       26.7216608617
  N         6.2029328926       -1.1234187804       28.1789806805
  C         5.3934657189       -0.6467212480       30.3292070909
  C         4.6935220752        1.5595518279       31.0714860356
  H         4.7252706934        3.0659357142       29.6545981708
  C         8.1251380218        1.2812833109       19.9841204325
  C        10.5689778060        1.4556963557       20.9275029707
  C         9.7486076425        4.0035729699       18.6117800869
  C         9.7082258244        5.3911317236       18.5168058542
  H         1.3520651061        4.3606337502       25.8971162789
  H         2.6130738027        4.0240702650       27.0334061662
  C         1.0726647915        5.1413168119       27.9344644129
  S         6.3717942656       -2.4977031366       29.0383275551
  N         5.6392735761       -2.0002521434       30.4396445885
  C         5.0176939992        0.1135945708       31.4289238027
  H         4.3074452609        2.2284601765       31.8687009047
  H         7.8072699123        0.5462202053       20.6861871144
  H         8.5615685517        0.8061110652       19.0929703953
  C         6.9493259214        2.1234918070       19.5681580872
  H        10.9164009284        0.8573988234       20.1272823885
  H        10.3900111450        0.7939060547       21.7500807977
  C        11.7983798411        2.3399609589       21.2094597496
  H        10.0547861609        3.2557080348       17.8165768308
  C         9.9570332071        6.2539678877       17.2451446414
  H         0.5912406249        4.1982447850       28.1522810285
  H         0.2015918623        5.6739864995       27.6263344845
  C         1.8833989626        5.7964629289       29.1297894126
  C         4.8442199314       -0.5040396038       32.7411069855
  H         7.2219361829        2.9685154643       18.9424052934
  H         6.5067493854        2.6237814087       20.5034112084
  C         5.9596120514        1.1792501038       18.9121310760
  H        11.5207038559        3.1729420383       21.8405015970
  H        12.0868076190        2.7788362974       20.2917783593
  C        13.0131299420        1.5850631785       21.7127911173
  C         9.8804787809        7.6439292007       17.0866832443
  C        10.3262232488        5.4459395316       16.0703000874
  H         2.7389747495        5.2820089685       29.2448743343
  H         2.2285236642        6.7672086600       28.8756375722
  C         1.1823974714        5.7597659735       30.4240808279
  H         4.7307540951       -1.5806447850       32.7027363330
  C         4.6186108186        0.0009115641       33.9851395129
  H         5.8727273995        0.3457946271       19.5773332309
  H         6.3427222901        0.7880628032       17.9252861201
  C         4.6326578967        1.9183736491       18.6522736337
  H        12.7929971486        1.3837065501       22.7766124479
  H        13.1364992285        0.6086697354       21.1763594114
  C        14.3324891136        2.1806658588       21.5793007857
  N         9.7066142932        8.5298562781       18.1589768753
  C        10.0962634546        8.2942352468       15.8467693503
  C        10.5009119582        6.1290971720       14.8586092589
  H        10.4981254059        4.3897525689       16.0751188860
  H         0.1196083553        5.6852656265       30.3322433122
  H         1.5525364627        4.9584140714       31.0962923857
  H         1.2229866728        6.7166231388       30.8660734613
  S         4.4482133729        1.6866614314       34.3954451707
  C         4.4676448095       -0.9418938498       35.0990639733
  H         4.5841304404        2.7050728231       19.4000856405
  H         4.6946382851        2.4530057005       17.7181589945
  C         3.4385412327        0.9806378324       18.9562510094
  H        14.3054392138        3.1276009016       21.1145264444
  H        14.9643980092        1.5779716754       20.9307101681
  C        14.9914428121        2.3973244366       22.9391959968
  S         9.7029993309       10.0329743594       17.5844608266
  N        10.1874988276        9.6896790194       16.0679006458
  C        10.4422169988        7.6020479826       14.7089554467
  H        10.6183772809        5.5175703373       13.9626163964
  C         4.0828205716        1.0748845429       36.0903986487
  N         4.1720321997       -0.2553919359       36.2441166315
  O         4.5826200037       -2.1315581977       34.9927087209
  H         2.7478189176        1.5694945474       19.5534273364
  H         3.6193206717        0.0783249349       19.6070678746
  C         2.7658591068        0.4983871209       17.7627799895
  H        15.5553584901        3.2422085133       22.8533196689
  H        14.3611281613        2.6629157309       23.7400132734
  C        15.9821146467        1.2515414216       23.3440882344
  C        10.8639371233        8.3480168679       13.5521258682
  S         3.6839592572        2.1579654340       37.3687844319
  C         4.1027940245       -1.0176860305       37.5150782617
  H         1.6444168502        0.5474211332       17.9348842285
  H         3.0212981491        1.2481701363       16.9525307040
  C         3.1799282934       -0.9127921388       17.1979419040
  H        16.0625844601        0.6086616532       22.5220720901
  H        15.5225410681        0.6758198600       24.1678729019
  C        17.4644005408        1.8536540523       23.7150015881
  H        10.5990958299        9.3679898542       13.6565345209
  C        11.2992986165        8.0143926343       12.2992889905
  H         3.4268147262       -0.3969082484       38.1933555421
  H         3.6577196267       -1.9858194460       37.3774211268
  C         5.4485570420       -1.2238262890       38.2004886378
  H         4.2550133514       -1.0171991171       17.1609865435
  H         3.0449444945       -0.8193467123       16.1154492425
  C         2.2657843500       -2.0040454499       17.8989538010
  H        17.3734044511        2.2653807265       24.7072685425
  H        18.1995465539        1.0691185949       23.8861108155
  C        18.0078205650        2.7206945343       22.4843702936
  S        11.9900618276        6.4747588026       11.8269665448
  C        11.1890100827        9.0233423601       11.2893161278
  H         5.8582738313       -0.3206402227       38.7582117654
  H         5.4158995420       -2.0030596859       38.9430329804
  H         6.1931777011       -1.5353238707       37.4093306928
  H         2.8597050305       -2.7087565731       18.4721409874
  H         1.6698226467       -2.5847187656       17.1630339304
  H         1.5590739586       -1.4591230938       18.5222377809
  H        19.0955090933        2.6496440878       22.5754929066
  H        17.7034266166        3.7635138157       22.4761299763
  H        17.8160198038        2.2120513220       21.5336750518
  C        12.1334851122        7.1965097905       10.2160508110
  N        11.7567822217        8.4972030220       10.2024207303
  O        10.7843163767       10.1838210600       11.3058135431
  S        12.9705528695        6.5328946560        8.7761320245
  C        11.7365422366        9.3012027743        8.9494899523
  H        11.3645131630       10.2924259423        9.0528143887
  H        12.7593447831        9.2376646469        8.4927741424
  C        10.7543436436        8.8181673256        7.9169036212
  H        11.0861734346        7.9354902597        7.3501106621
  H         9.7039440304        8.7416216486        8.1268884377
  H        10.8027572644        9.5074418581        7.0421558399
  H        -3.8430209148       14.5342495539       16.2641372618
  C        -3.3410117633       13.6050976627       16.4161326483
  H        -4.0064960626       12.8682057782       16.8582238739
  C        -2.1339189899       13.7618995675       17.3571580158
  C        -2.8096076918       13.0831070902       15.0972631228
  C        -2.5665927415       14.1630270132       18.6933570720
  H        -1.6778735355       12.7596441704       17.3545615952
  H        -1.3936409368       14.4004161237       16.8724927954
  H        -1.7474539262       13.2453004112       14.9838797254
  H        -2.8694945953       11.9912589090       15.0281648883
  H        -3.3825129273       13.6438255583       14.3305913175
  C        -1.5428039400       13.9124914414       19.8107438761
  H        -3.4942587467       13.6460478093       19.0031479456
  H        -2.8866241858       15.2240852384       18.6919996098
  C        -2.1719061982       13.7448664063       21.2016426762
  H        -1.0164624148       12.9439042620       19.7126798974
  H        -0.8220184839       14.7339155922       19.7743095726
  C        -1.1713657626       13.0033972877       22.1347250150
  H        -3.0349131567       13.0484756226       21.0666767893
  H        -2.4945060329       14.5668840412       21.6516230531
  C         0.2006540589       13.7635221803       22.3545883243
  H        -1.6759805201       12.9768919048       23.1037774687
  H        -1.0305582915       11.9541123833       21.8927661984
  C         1.2781463618       13.0009008003       23.1488335091
  H         0.7480217240       14.1013917045       21.4212596339
  H        -0.0592051880       14.7519775508       22.7313228153
  C         1.6091028894       11.6918802895       22.5440007660
  C         0.7340799697       12.3524794194       24.3961033882
  C         2.5880120059       13.8747334016       23.4501697845
  C         1.2130525846       10.6277260641       23.2755646214
  C         2.0106600888       11.3139837217       21.2844070551
  C         0.7937956009       11.0169128000       24.5520441394
  C         0.2508279923       13.0335795617       25.5029400931
  H         2.8643185763       14.3363170485       22.4814065408
  H         2.3711889761       14.6713770251       24.1502089730
  C         3.7734232683       13.0277655021       24.0707379298
  S         1.5861182932        9.1192543973       22.5239714850
  C         2.0043588132        9.9443115505       21.1298600882
  H         2.0613614892       12.0523641658       20.4110921209
  C         0.4001109304       10.4236343510       25.7011968999
  H         0.1498248347       14.1422863429       25.4273779134
  C        -0.1102349766       12.4086104621       26.6956410175
  H         3.9169370210       12.0276108785       23.6070708958
  H         3.4164837032       12.8790651302       25.0263183249
  C         5.0927664550       13.7342707583       24.1605987410
  C         2.3540779367        9.2057885106       19.9128381906
  C        -0.0638056793       11.0807171909       26.8290223688
  H         0.4772351885        9.3508555477       25.6703763096
  C        -0.4665365231       12.7750063176       28.0055048413
  H         5.8271831128       13.3323241181       24.9033504881
  H         5.0004910618       14.8564096497       24.3683164051
  C         5.7475742536       13.7989488460       22.7597985861
  C         2.3388460886        7.7992861284       19.7482943151
  C         2.8232239248       10.0041159944       18.7382158745
  C        -0.4135745569       10.3567742166       28.0394833838
  C        -0.7078205768       11.6817915877       28.7737498492
  S        -0.8268524071       14.2264110047       28.8438008846
  H         6.5943268623       14.5067392075       22.8582523624
  H         5.0537656258       14.2151513465       21.9938685147
  C         6.3654077606       12.5206066925       22.2742284022
  N         2.0663976283        6.8513043145       20.7954706422
  C         2.6067890576        7.1919251096       18.5374123804
  C         3.0313990315        9.3745651149       17.5163351650
  H         2.9908148540       11.0346970675       18.8094538079
  C         0.7769701478        9.6617199559       28.7435667561
  C        -1.7129953137        9.6099016956       27.8473538568
  C        -1.1241239364       12.0076651121       30.0837958301
  C        -1.3006658719       13.3671045843       30.3010225426
  H         7.1167428817       12.1216538017       23.0253302910
  H         5.5688353466       11.8684862618       22.0679127636
  C         7.0876980247       12.7208518457       20.9681830912
  S         2.0491975026        5.3518188964       20.1401085821
  N         2.5421112739        5.8157638600       18.6127857603
  C         3.0022972122        7.8992427986       17.3789753156
  H         3.5126228232        9.8507514768       16.7483540867
  H         1.0301839318        8.6728655441       28.2766245361
  H         0.3407565395        9.4264496966       29.7478737738
  C         2.0621059711       10.4908510912       28.9568953343
  H        -1.4050337753        8.7597718564       27.2345378726
  H        -2.0390245395        9.1210236600       28.7869188626
  C        -2.9599981085       10.2825001653       27.1430641335
  H        -1.1708397418       11.1987596509       30.7655588275
  C        -1.6761696361       13.9903016977       31.5784935598
  H         7.5917832498       11.7850996234       20.7158282743
  H         7.7165519458       13.5857420331       21.0005250769
  C         6.1215980180       12.9958004569       19.7379686997
  C         3.1419807507        7.1525290607       16.1838416478
  H         2.5630673805       10.7129872825       28.0013347339
  H         1.9145359114       11.3728550051       29.5803709671
  C         3.0640599547        9.5561139784       29.6637085212
  H        -2.7321484400       10.8298858903       26.2263109022
  H        -3.4497228325       11.1439457796       27.7018180151
  C        -4.0933747330        9.2176173751       26.7945011548
  C        -1.8349702404       15.3649757375       31.7956088202
  C        -1.8529138515       13.1392284688       32.7725609210
  H         5.4814415376       12.0811013868       19.6541477435
  H         5.3575915112       13.7546500566       19.9451482495
  C         6.8779156168       13.2759331283       18.4545780537
  H         2.8259303480        6.2109430514       16.2393970120
  C         3.4713742408        7.4739380613       14.9010141850
  H         3.5627126311        8.9137674926       28.9109322865
  H         2.4793922239        8.8511696120       30.2684033059
  C         4.0880470004       10.4303158765       30.5014183587
  H        -3.7222517958        8.5687932047       26.0193989665
  H        -4.4828421931        8.5976321987       27.5734086146
  C        -5.3018586730        9.9038306610       26.1161983967
  N        -1.6031576195       16.3627556253       30.8463076744
  C        -2.2394137178       15.9385207564       32.9755780965
  C        -2.2863805070       13.6762810353       33.9769923027
  H        -1.5327349254       12.0401286120       32.8192435318
  H         7.4021915889       12.3263493196       18.1866379341
  H         6.1947921903       13.5827308700       17.6499431910
  H         7.5659586337       14.0654269865       18.4470434511
  S         3.9262278484        8.9833652072       14.2178080312
  C         3.3496705692        6.3543594404       13.8649338552
  H         4.6758987164       11.0192163209       29.9126296971
  H         3.6137488250       11.1777959024       31.1501537943
  C         5.1624673037        9.5130180691       31.2741287233
  H        -5.6443683151        9.2290324018       25.2737462702
  H        -4.9468824387       10.7981014309       25.5806226193
  C        -6.4388688425       10.2865021549       27.0509111274
  S        -1.9400366137       17.8070625069       31.4351744047
  N        -2.2360351934       17.3844028334       32.9406401109
  C        -2.4493366325       15.2052849335       34.1575476105
  H        -2.4309004241       13.0755308594       34.8526905619
  C         3.8754011711        8.2243880518       12.6163279603
  N         3.5755359555        6.8603006679       12.6152093926
  O         3.1684681895        5.1812107565       14.1599275555
  H         5.8141634303       10.1765693082       31.8335119687
  H         5.8564169287        9.1066504345       30.5361529964
  C         4.6040300259        8.3584453305       32.1434940589
  H        -6.5224381228        9.3778672541       27.7179634915
  H        -6.1442665849       11.0152563583       27.7653841593
  C        -7.8681737908       10.5751423694       26.5382766228
  C        -2.6877254417       16.0083220402       35.3751084314
  S         4.5401938359        8.8513877893       11.0884438410
  C         3.3947914834        6.0807771741       11.3674314810
  H         5.0714381935        8.3537841238       33.1200327437
  H         3.5356500697        8.5989362455       32.3442083168
  C         4.8470640266        6.9562324514       31.5500183017
  H        -7.7493211733       11.0275171790       25.5792502287
  H        -8.3981628819       11.3567923016       27.0713689231
  C        -8.7269546928        9.3358240729       26.3663094955
  H        -2.5540875054       17.0904074155       35.2416773272
  C        -3.2213117803       15.5998599130       36.5997833014
  H         4.3178200260        6.0464012453       10.7152195868
  H         3.2627274365        5.0512423650       11.6364837772
  C         2.1465369154        6.4117894966       10.5567961376
  H         4.5103071365        6.9132127277       30.5129332584
  H         4.2530292505        6.1817220324       32.0449517570
  C         6.3469152710        6.5630980975       31.7778737510
  H        -8.2791210927        8.6669716261       25.7953778455
  H        -8.9581924016        8.8159498549       27.2744960994
  C       -10.0836829437        9.8392314958       25.8646500244
  S        -3.9431766586       14.0919050970       37.0132943674
  C        -3.3338280881       16.6403033987       37.6872106519
  H         1.5383084355        5.6506629253       10.0768484192
  H         1.5482538980        7.1217082862       11.0906484289
  H         2.4791083537        6.9445897196        9.6545842362
  H         6.6378362354        6.4137990664       32.8670850260
  H         7.0804386923        7.3116453397       31.3848144496
  H         6.4787484210        5.5865066695       31.2156725697
  H       -10.0738097350       10.8962171116       25.6342821932
  H       -10.8885596808        9.6238862280       26.5549710808
  H       -10.3016548466        9.3100892683       24.9356937482
  C        -4.2483537483       14.7955389758       38.6663320983
  N        -3.8662335259       16.0923742214       38.7812225724
  O        -2.8502655920       17.7804425870       37.6769677731
  S        -4.6303942260       13.7821874379       40.1174816600
  C        -3.9229211244       16.7969560693       40.0204495490
  H        -4.0728920768       17.9015204361       39.8302206892
  H        -4.7076816165       16.4621541687       40.6736532110
  C        -2.6261557049       16.5131599979       40.8403651817
  H        -1.8124302731       17.1413286201       40.5167779443
  H        -2.6633258253       16.6318828774       41.9109719397
  H        -2.3156988986       15.4442758843       40.6835483238
