352
 i =    25800, time =    25800.000, E =        25.1966939926
  H        12.1055649516        7.5541971087       32.3860510408
  C        11.8161394762        6.5343189744       32.2054834830
  H        12.7585789538        6.0630996536       32.0009097411
  C        10.8396227363        6.3480600248       31.0694591045
  C        11.1604294385        6.1893822642       33.5368350835
  C        11.3063131557        6.2585208169       29.6315387120
  H        10.3085547487        5.4485762211       31.3271172188
  H        10.0839241811        7.1065604790       31.1325589345
  H        10.0281067229        6.4047831507       33.5733945174
  H        11.3949244126        5.1892030999       33.7852659358
  H        11.6294957445        6.8503676856       34.2292095361
  C        10.1803069289        6.2140464375       28.5073916787
  H        12.0716262337        5.4469282051       29.6119474190
  H        11.9040669279        7.1866043326       29.4532004573
  C        10.6683637310        5.7828809813       27.1026746235
  H         9.3672690395        5.5635789407       28.7713590882
  H         9.8305187785        7.1798469871       28.4022818638
  C         9.5584009123        5.0843571341       26.2642348913
  H        11.5036071656        5.1671819512       27.2152735364
  H        11.0389345932        6.6887405104       26.6195822171
  C         8.3767967020        6.0331836754       26.0531448471
  H         9.9835054868        4.9765661547       25.2844281405
  H         9.3266704357        4.0732666136       26.6836471174
  C         7.1673271686        5.3227940103       25.4083934715
  H         7.9861373660        6.4415237069       26.9802767466
  H         8.8118145697        6.7848689609       25.3991430786
  C         6.9062584205        3.9733768554       26.0922974183
  C         7.5438415435        4.5809628739       24.1201424573
  C         5.9088184135        6.2306528113       25.3460694691
  C         6.9984792477        2.9044449981       25.2275843486
  C         6.6345624689        3.6174976545       27.3857335409
  C         7.3967471816        3.2768595181       23.9722084027
  C         8.0181888912        5.2776604358       23.0539540522
  H         6.2233326477        6.9729786161       24.5235260281
  H         5.6078419848        6.7350018439       26.2405779636
  C         4.7077125208        5.4460906617       24.9483846829
  S         6.6179753083        1.4150410427       25.9938238279
  C         6.3816921182        2.2384541445       27.5185603479
  H         6.5147315989        4.4422265730       28.1368750377
  C         7.7356554492        2.7383092426       22.7710483062
  H         8.2487075507        6.3392562774       23.0946308966
  C         8.2466779525        4.8149049413       21.8194520806
  H         4.8487484748        5.0615245919       23.9564704529
  H         4.4718298153        4.6257650505       25.6266751717
  C         3.5288158134        6.3259388271       25.0058985320
  C         5.8354423003        1.6153252630       28.7559511620
  C         8.2621326152        3.4751387768       21.6756549602
  H         7.6173501201        1.7003485118       22.5211538395
  C         8.6783142272        5.1839503494       20.5597697813
  H         2.7074475584        5.8070612202       24.4779645518
  H         3.7163358659        7.3508862745       24.5193039015
  C         2.9819081175        6.5001009765       26.4437491283
  C         5.8255158031        0.2531689476       29.0040059279
  C         5.4726328705        2.4810051456       29.9433401994
  C         8.6326557318        2.7165841693       20.4281580739
  C         8.9267452246        4.0864534061       19.7159495848
  S         8.8344481951        6.7057797211       19.7959906254
  H         2.2842943891        7.3058692890       26.4117643190
  H         3.7714441720        7.0197811181       26.9635100707
  C         2.4963543439        5.2516497865       27.1588596825
  N         6.0525509580       -0.7508808715       28.0526150625
  C         5.6163422011       -0.2377653776       30.3445257112
  C         5.2762049527        1.9683235260       31.2232918290
  H         5.4702199714        3.5472193339       29.9004233387
  C         7.4615923716        1.8912340808       19.7344793672
  C         9.9148351033        1.8259153617       20.8005913276
  C         9.3089253147        4.5084442871       18.4274632223
  C         9.2670627866        5.9052692962       18.3009802827
  H         2.1144107202        4.5950803325       26.3886922684
  H         3.3330160737        4.7351980584       27.6250152621
  C         1.4917209849        5.5220925843       28.2473610749
  S         6.0001035051       -2.1569079249       28.8883262219
  N         5.8283580363       -1.6295321961       30.3741673764
  C         5.4373000102        0.5194864507       31.5262673955
  H         5.0305310340        2.6517359909       31.9806063500
  H         7.2844895195        1.1587380832       20.5084204435
  H         7.6881741623        1.3616094402       18.8104111419
  C         6.2792349576        2.8091454194       19.3910727850
  H        10.0904526828        1.0117615672       20.1121988132
  H         9.6645667417        1.3109762997       21.7007307753
  C        11.2707148131        2.5768474276       21.0111810143
  H         9.5346779273        3.7141170696       17.6710284794
  C         9.4452587015        6.6095882165       17.0106799982
  H         0.9318863331        4.5796275733       28.3889764880
  H         0.6992223311        6.2374766771       27.9852801434
  C         2.1398891067        5.7138831053       29.6512713073
  C         5.1518389464       -0.1485243339       32.7776909613
  H         6.6572023242        3.5477336464       18.6891395059
  H         5.8913105170        3.3121816561       20.2824634517
  C         5.1624632239        2.0080440241       18.7741195131
  H        11.2666410371        3.0594464261       22.0199452813
  H        11.2483373584        3.3727199312       20.2631990386
  C        12.5436987974        1.7628240914       20.7809346163
  C         9.6299142814        8.0108356783       16.8119422583
  C         9.7474322521        5.8044773223       15.8185646987
  H         2.5538543386        4.7079473719       29.9347546213
  H         3.0423493295        6.2559516511       29.6329892103
  C         1.2370441446        6.1977570094       30.7752230358
  H         5.2656017287       -1.1757011284       32.7419645507
  C         4.9148154502        0.3556416106       34.0051463453
  H         4.8803326786        1.2630915991       19.4826490868
  H         5.6452575965        1.5913973003       17.9014210720
  C         3.9532355092        2.8992110367       18.3339110865
  H        12.5859846254        1.1189215772       21.6607444645
  H        12.4322254538        1.0342389269       19.9582781526
  C        13.7800924388        2.6078222271       20.6648449327
  N         9.4885852676        8.9345641250       17.8466845634
  C        10.0775653383        8.5876498752       15.6393418554
  C        10.1338318350        6.3534672022       14.6008432167
  H         9.5957308564        4.7708474658       15.9269014032
  H         1.0073364846        7.2365973419       30.6879440139
  H         0.3205234605        5.5134030593       30.7598762393
  H         1.6593391082        6.0027418024       31.7360452621
  S         4.7020631923        2.0378198561       34.3385705685
  C         4.7548105983       -0.6094447609       35.0822273577
  H         3.9502895797        3.7767665853       18.9494179338
  H         4.1049160351        3.2606796402       17.3595487172
  C         2.6052567159        2.1875806573       18.3272072102
  H        13.5822612633        3.5307722665       20.0991480289
  H        14.4795274897        1.9594622878       20.1978664709
  C        14.1162993563        3.0894080318       22.0658426770
  S         9.7432561346       10.4396103032       17.3282024850
  N        10.2975322570        9.9943012061       15.8498218727
  C        10.3030945845        7.8555298909       14.4501807469
  H        10.1518563490        5.7408986606       13.7738578534
  C         4.4241485514        1.4509838724       35.9901325135
  N         4.4194874898        0.1096620876       36.1443240554
  O         4.8130350266       -1.8360091469       35.0109521966
  H         1.7850482164        2.9378352833       18.1427631407
  H         2.5228514733        1.8420138356       19.3422253987
  C         2.6574507426        0.9630421186       17.3403126823
  H        14.7013117037        4.0081282565       22.0295262357
  H        13.3194963114        3.3084916346       22.7785737375
  C        14.9254567136        2.0155572885       22.7614684395
  C        10.5128749330        8.5223028592       13.2577590967
  S         3.9372564993        2.4319605608       37.3531753130
  C         4.2784624361       -0.5714409285       37.4088605998
  H         2.2215932076        1.2765801683       16.3911085035
  H         3.6905189922        0.8253672975       17.0456165414
  C         1.8963631294       -0.2743708898       17.7261516272
  H        15.2947721724        1.2247196971       22.1420944912
  H        14.2387609341        1.4958674917       23.4782611468
  C        16.1759630758        2.4716075516       23.5241112878
  H        10.2977186469        9.5297906153       13.2460500716
  C        11.1651704593        8.0904311299       12.1292119339
  H         3.6767249236        0.0158823150       38.1458526264
  H         3.6144013224       -1.4137205270       37.2879536954
  C         5.6861615858       -0.8500883268       38.0270320971
  H         2.0721588116       -1.0375790018       16.9463713672
  H         0.7987419735       -0.1629075329       17.7005530393
  C         2.4382749522       -0.8503060554       18.9891121416
  H        15.9293751550        3.2598577575       24.2100550053
  H        16.5213813224        1.7305431897       24.2804941115
  C        17.2868206301        2.9305435290       22.6042002858
  S        11.8490060613        6.5241164030       11.7831643617
  C        11.3434564841        9.0590844559       11.0389285094
  H         6.5294049222       -0.9898441237       37.2556613475
  H         6.0197605972       -0.0483068219       38.6496955686
  H         5.6332126681       -1.7791307746       38.6632203904
  H         1.7381953837       -0.5927896168       19.7802408404
  H         3.4947361938       -0.5608683496       19.1161013564
  H         2.5223182782       -1.9088218550       18.7764366981
  H        18.2147507979        2.5695989684       23.1187591574
  H        17.2773116957        4.0241091056       22.5906716675
  H        17.1907010169        2.5945558625       21.5689694328
  C        12.2865309193        7.2125233556       10.1481190988
  N        12.0890955879        8.5705817870       10.0509787113
  O        10.8838055540       10.2090639346       11.1177242533
  S        13.2729527644        6.5209494887        8.8072365782
  C        12.2863096589        9.3681231247        8.8328199949
  H        12.5788679314       10.3816268639        9.0179379404
  H        13.1853907156        8.9605551304        8.2608271837
  C        11.0870579622        9.2364934395        7.8692705112
  H        10.3546492271        9.9871762801        8.1264270056
  H        11.2706824784        9.3113683161        6.7946152887
  H        10.6457213059        8.2820936622        7.9599782105
  H        -1.8740135036       15.0818166212       15.6472282820
  C        -2.4961668621       14.3020375173       16.0358115283
  H        -3.4301837401       14.8151326532       16.3204236802
  C        -1.8962422917       13.6228731431       17.2662059527
  C        -2.8127681158       13.2058121408       14.9452913543
  C        -2.4662905887       14.1940617333       18.5765738448
  H        -2.1962577569       12.5112626941       17.1626316950
  H        -0.8247939994       13.7138548870       17.3761417077
  H        -2.3660106586       12.2415106536       15.0475806913
  H        -3.8380972263       12.7837764640       15.0546211257
  H        -2.6272384767       13.4250397029       13.8756398018
  C        -1.7200008843       13.5785659634       19.7402595820
  H        -3.5313259707       13.9673616860       18.5445181703
  H        -2.2589878984       15.2592756126       18.6454646988
  C        -2.3610976125       13.7130520959       21.1269401110
  H        -1.7009824482       12.5418367621       19.4453266555
  H        -0.7224922462       13.9270068916       19.6975845065
  C        -1.3793219952       13.1329720943       22.1264704438
  H        -3.2907696683       13.1309093442       21.1123789542
  H        -2.5288376456       14.7693329380       21.4067952763
  C        -0.1007543122       13.9704407576       22.4801993553
  H        -1.9402479064       12.9377460010       23.0493756144
  H        -1.1581428705       12.1385534426       21.7561080542
  C         1.0592240042       13.3404728670       23.3904123322
  H         0.3579092088       14.3388213767       21.5495705061
  H        -0.4011526098       14.8807597560       23.0404146570
  C         1.3869279425       12.0841889167       22.5977713489
  C         0.6131760608       12.6096512535       24.6457763711
  C         2.2774529960       14.3043392913       23.6136188680
  C         1.1052129573       10.9605323025       23.3803590270
  C         1.8244362464       11.7779937857       21.3179001139
  C         0.6448732495       11.2451814581       24.6358616276
  C         0.2751365871       13.2092550125       25.8312603522
  H         2.3790576920       14.8602308398       22.7124656612
  H         2.0016487536       15.0392698498       24.3134815590
  C         3.5976857897       13.6863970260       23.9912709552
  S         1.4981992673        9.5104007961       22.6183762464
  C         1.9239884944       10.4210166929       21.1478310110
  H         2.0880590451       12.5094923609       20.6105220343
  C         0.2935345213       10.5390499162       25.7730463396
  H         0.2715838299       14.2733356410       25.9031576626
  C        -0.0184194851       12.5103458809       26.9385655703
  H         3.8567978508       12.8589594366       23.3162417418
  H         3.4594173340       13.3611883377       25.0473162463
  C         4.7928106071       14.7433308390       23.8616886232
  C         2.3847166046        9.7104561113       19.9136680858
  C        -0.1144077525       11.1827216656       26.9668849819
  H         0.3453951882        9.4267229490       25.7723182024
  C        -0.2954185651       12.8293269975       28.2218808164
  H         5.4505853863       14.3648620575       24.7056219655
  H         4.4411176529       15.7698935428       24.0220359992
  C         5.5872430444       14.7860934402       22.5259468973
  C         2.4206474760        8.3333436984       19.5819335718
  C         2.8343987736       10.6727076881       18.7632116250
  C        -0.6480277397       10.4355409109       28.2133798899
  C        -0.7610667621       11.7286090149       28.9390080723
  S        -0.5517547116       14.2928215782       29.0878988516
  H         6.5423759073       15.3307367189       22.8120220130
  H         5.1452659909       15.4867593809       21.8568221194
  C         5.8060819391       13.4257007341       21.8282256028
  N         1.9825288016        7.3056407796       20.4704977996
  C         2.6924547856        7.8179956755       18.3070111756
  C         3.1747824392       10.1182403404       17.5298357141
  H         2.9026184694       11.7404550700       18.9341514660
  C         0.4855890905        9.5610811769       28.8768222982
  C        -1.9371681597        9.6648038357       27.9786281856
  C        -1.2233072821       12.0661062922       30.2285027615
  C        -1.1688467713       13.4507297110       30.3879813483
  H         6.0923115765       12.6833062808       22.6298760746
  H         4.9571570914       13.1003623229       21.2869253472
  C         6.8734952436       13.5769634215       20.7116112441
  S         1.9537586646        5.8587597684       19.6917098605
  N         2.4458028784        6.4181533746       18.2663173940
  C         3.0443299382        8.6552497425       17.2327067669
  H         3.5160873784       10.7906451934       16.6877520065
  H         0.8844843456        8.7860522923       28.1814032410
  H         0.0741297868        9.0062618384       29.7919870422
  C         1.7215141921       10.3570687528       29.3407634559
  H        -1.8178545301        8.8465614040       27.2301191393
  H        -2.1569670262        9.2249920378       28.9903244110
  C        -3.1120577828       10.6076473652       27.5378615109
  H        -1.6094878844       11.3343885964       30.8389614655
  C        -1.4378311834       14.1454966357       31.7014014208
  H         7.3958556276       12.6104083582       20.5356560659
  H         7.5385783238       14.3199131795       21.1322486928
  C         6.3080091592       14.0786249707       19.4079966888
  C         3.2118245710        8.0234034741       15.9596997876
  H         2.0258753817       11.1457081942       28.6182178400
  H         1.4832852198       10.9000479759       30.3182301807
  C         2.8428314856        9.4336461078       29.6603373336
  H        -2.7695923093       11.1967440064       26.6608020540
  H        -3.5248270596       11.1980947679       28.3417418377
  C        -4.2826953115        9.8209084703       27.0270190832
  C        -1.4058566136       15.5577070287       31.9222015943
  C        -1.8946367379       13.3170936203       32.8893257889
  H         5.7230058112       14.9580736569       19.6555033003
  H         7.1634639524       14.3026220641       18.7846306735
  C         5.5106591424       13.0417984820       18.6540447596
  H         2.9618185372        6.9821749218       16.0487197353
  C         3.5258675028        8.4392991252       14.6780864225
  H         2.9763424657        8.8152755047       28.8052613525
  H         2.5052417679        8.7017599402       30.3680727887
  C         4.0891881591       10.1727877884       29.9998501005
  H        -3.9311627203        9.2696089007       26.1346997015
  H        -4.6965067936        9.1524251251       27.7865632156
  C        -5.3903184627       10.8204290524       26.5958210296
  N        -1.1843120625       16.4934076041       30.9143690111
  C        -1.7149351274       16.1545396163       33.2187480988
  C        -1.9803414559       13.9165440554       34.1878222388
  H        -2.1540821443       12.2837488619       32.6955306506
  H         6.1782783877       12.6708946033       17.8881772620
  H         5.1207230114       12.2533541026       19.2932996134
  H         4.7041671797       13.5332098229       18.1104694198
  S         3.7929682538       10.0120696335       14.1078313683
  C         3.5447771995        7.3568256477       13.6401738709
  H         4.2482076276       10.7878037612       29.1711080853
  H         4.0212845710       10.8430109618       30.8169486536
  C         5.3980069628        9.3679274723       29.9820417847
  H        -4.9486514250       11.5742331634       26.0069332101
  H        -5.7863522166       11.4162089247       27.4028890170
  C        -6.5323058922       10.0047897965       25.9070604201
  S        -1.3576629715       17.9843432127       31.5885539661
  N        -1.7001572909       17.5720150219       33.1410765986
  C        -1.9196136819       15.4595581533       34.3937139214
  H        -2.2514957241       13.3254596935       35.0573494642
  C         4.0907459480        9.2613684674       12.5696023096
  N         3.8225693610        8.0050634638       12.4771730083
  O         3.3352664285        6.1014827841       13.8192605490
  H         6.1561176007       10.1125600676       30.2856642425
  H         5.5629932170        8.9312832702       28.9727925976
  C         5.3463447201        8.3919608323       31.1805962483
  H        -6.2296351490        9.3605774977       25.0087309945
  H        -6.9590270050        9.4092670777       26.7308192466
  C        -7.6179281711       11.0170985311       25.4588181502
  C        -2.1755682589       16.1777554976       35.6147698120
  S         4.5538347872       10.1910113115       11.2173591759
  C         3.9218850857        7.2918270465       11.1855536036
  H         5.1834367585        8.9177424079       32.1683644011
  H         4.5715552381        7.7070519291       31.0294611026
  C         6.5668676812        7.5420100832       31.1634959069
  H        -7.8134879234       10.8236323040       24.4507640717
  H        -7.2364327863       12.0544752328       25.6416120090
  C        -8.8976111041       10.8698630803       26.2495696235
  H        -1.9605151340       17.2333764158       35.5159066887
  C        -2.8525426827       15.8120504335       36.7924211615
  H         4.6536307230        7.6006871244       10.4150469072
  H         4.1736724577        6.2754038455       11.4132488956
  C         2.5220837378        7.2387544788       10.5833995306
  H         7.0656351188        7.6888989292       32.1234410102
  H         7.3027429697        7.9759605113       30.4747893301
  C         6.3965348848        6.0632637170       30.7547539509
  H        -8.8453641035       10.8232024597       27.3453566379
  H        -9.4170096544       11.7779792939       26.0212074688
  C        -9.6884814600        9.6658685963       25.8002668424
  S        -3.4375804387       14.2108058348       37.2387510393
  C        -2.9593468906       16.7871484376       37.8808825899
  H         1.8854492656        6.6416168635       11.2448625817
  H         2.0316291722        8.1336061504       10.2513973356
  H         2.5447104612        6.6850672638        9.6545982310
  H         6.0074097237        6.0710187539       29.7451431898
  H         5.5365589687        5.6711974423       31.3221506821
  H         7.3727454158        5.5776349494       30.8385494874
  H       -10.5161645797        9.4218766421       26.4563699838
  H        -9.0506136244        8.7686872398       25.8411810980
  H       -10.0383373969        9.7222130333       24.7368209215
  C        -3.8441190967       14.9848791412       38.8109105224
  N        -3.5808282206       16.2989996873       38.9255961242
  O        -2.4218953600       17.8795696393       37.8448191649
  S        -4.8396366474       14.2083970673       40.0330744923
  C        -3.8267692740       17.1227954415       40.1231548657
  H        -4.1663202280       18.0683889823       39.7736362127
  H        -4.6600715883       16.8566062200       40.6725975507
  C        -2.6688497824       17.0582449051       41.1061935050
  H        -2.8778170971       17.2425143460       42.1785394164
  H        -2.2371120545       16.0620601229       41.0444000904
  H        -1.8102614699       17.7028789219       40.7725858450
