352
 i =    62200, time =    62200.000, E =        25.1212989337
  H         9.2690455054        5.4636096214       31.2762210148
  C         9.8743292439        6.2487765417       31.6951540928
  H         9.1861086549        6.9636405674       32.1386890739
  C        10.6917441513        6.9685709938       30.6757666857
  C        10.6929488014        5.7214191350       32.8785719016
  C        11.1572855313        6.0103296643       29.6624592270
  H        10.1185184994        7.8077847066       30.2082337805
  H        11.5648735586        7.3738917785       31.1470468468
  H        10.1669452173        5.6852942682       33.8256091848
  H        11.0232189719        4.7088922090       32.6840058681
  H        11.6088950393        6.2915481670       33.0518722650
  C        10.1235491081        5.6611166788       28.6503279002
  H        11.5255235113        5.1253206010       30.1477559761
  H        11.9352460661        6.6224177917       29.1562097236
  C        10.5449058407        5.6005685016       27.1666996909
  H         9.6664920443        4.7873742872       28.9172366462
  H         9.2681961888        6.3138932617       28.7337012925
  C         9.4043966287        5.0761494705       26.2928625741
  H        11.3609738424        4.9052955469       27.1168548146
  H        10.8462071597        6.6017622575       26.8151472562
  C         8.1800767815        5.8617655775       26.0555897368
  H         9.8917253525        4.9694834617       25.3734037505
  H         9.2088350004        4.0115402686       26.5810075255
  C         7.1343079635        4.9609476669       25.4427390578
  H         7.7851768318        6.3233309085       26.9276296725
  H         8.4366381156        6.6801121588       25.3879978741
  C         6.8455601198        3.6421877454       26.1688730922
  C         7.6525853590        4.2250841702       24.2330300662
  C         5.8226563214        5.6442956213       24.9868034038
  C         7.0798522259        2.5623620708       25.3734776844
  C         6.4664276821        3.2989113661       27.4555520242
  C         7.6077612820        2.8836547050       24.1249999122
  C         8.1238994479        4.9027811269       23.1617740250
  H         5.3302208183        4.9198563888       24.2868935391
  H         6.0345581152        6.6521411975       24.5308308411
  C         4.7497884386        6.1117620429       26.0687668421
  S         6.6277258918        1.0446588553       26.2253430924
  C         6.2030177351        1.9292173047       27.6529797870
  H         6.2542576273        4.1026854002       28.2044540060
  C         8.0069989414        2.2084433273       23.0415734859
  H         8.2119893064        6.0174625183       23.2333895896
  C         8.4220344872        4.2857356771       21.9466368914
  H         4.4245542832        5.2852879685       26.7139041319
  H         5.1444076366        7.0625039941       26.5523267118
  C         3.4947628689        6.6462136160       25.4778158038
  C         5.7239915108        1.2455514635       28.8982957949
  C         8.3406711410        2.9738053288       21.8527992536
  H         7.8820376977        1.0961664319       23.0053000179
  C         8.8615012609        4.6028849581       20.6772593655
  H         2.9738084986        5.9847528765       24.7696002306
  H         3.7620131496        7.4529181698       24.8280519602
  C         2.5241045163        6.8805453437       26.6215885437
  C         5.7244649576       -0.1433717903       29.1396355587
  C         5.1457549522        2.0866880546       29.9637148550
  C         8.6152279162        2.2570795261       20.5292687566
  C         8.9237798095        3.5329741542       19.8241476792
  S         9.1361577423        6.0236134506       19.9041733534
  H         1.8133499308        7.5698204797       26.1964008201
  H         3.0319659043        7.4222578002       27.4075271535
  C         1.8000960891        5.6081431039       27.1139497652
  N         6.0850047201       -1.1537210842       28.1927318374
  C         5.4898977929       -0.6930721281       30.4080787864
  C         4.8748693203        1.5444255581       31.2641488266
  H         5.0817616176        3.1558288221       29.7917057772
  C         7.4459502663        1.4071691853       19.9610023779
  C         9.8990934595        1.4320066509       20.5660711884
  C         9.2449932355        3.8413377010       18.4869797678
  C         9.3880812350        5.2016079860       18.3792803802
  H         0.9260418020        5.4438190510       26.5070882215
  H         2.3929290027        4.6879700230       26.9919574255
  C         1.5241583805        5.8167547027       28.5878391529
  S         6.0088137928       -2.6199675827       28.9591528298
  N         5.5453920470       -2.1213589715       30.4603681987
  C         5.0659191805        0.1300534456       31.5279528197
  H         4.5831956845        2.1746989650       32.0701107757
  H         7.2022650307        0.6659910924       20.7116881802
  H         7.6854346837        0.9497300677       18.9786887270
  C         6.3130893843        2.4371472461       19.6966878193
  H        10.0722139602        1.0592028714       19.5724352840
  H         9.7588277178        0.6665704688       21.3334002642
  C        11.1119183443        2.3278702548       20.8767878275
  H         9.4191499996        3.0864964894       17.7394429946
  C         9.8124262877        5.9614302114       17.1915913771
  H         0.6983533041        5.1912346523       28.8098054451
  H         1.1757198735        6.8505734897       28.7774860426
  C         2.7665095365        5.4653495362       29.4557515685
  C         4.8107788074       -0.5314231469       32.7896276509
  H         6.5525856436        3.2895337520       19.0040165239
  H         5.9810515547        2.8537600179       20.6643722896
  C         5.0690832888        1.7601420795       19.1407112325
  H        10.7604315542        3.0596729210       21.6391895691
  H        11.4126542891        2.8713349423       19.9848310393
  C        12.2954465993        1.5008316057       21.3295845897
  C         9.8968085482        7.3711141314       17.0816072744
  C        10.0487815656        5.2903402230       15.8740727961
  H         3.1466959127        4.4816674133       29.1457841010
  H         3.4725325635        6.3218176979       29.3816457104
  C         2.3737325194        5.3563705674       30.9191077692
  H         4.8564237171       -1.6245813631       32.7077882750
  C         4.5280495964       -0.0537953429       34.0810119560
  H         4.5067461390        1.3422769763       19.9945781719
  H         5.3698738616        0.8164230430       18.6540786179
  C         4.2051564892        2.6064411361       18.2105420732
  H        11.8029670037        0.8858143993       22.0694252585
  H        12.5665071866        0.8252485342       20.5733738808
  C        13.3820948726        2.3437033671       21.9177521115
  N         9.5946389639        8.3335306739       18.1030037598
  C        10.3368607746        8.0311321977       15.9300724535
  C        10.4309770963        5.9227753684       14.7166506926
  H         9.9330061113        4.2480222328       15.7611926427
  H         1.6733097897        6.1171137052       31.2737387594
  H         1.9393304057        4.3492153100       31.1989789006
  H         3.2859908494        5.4023533123       31.4606659474
  S         4.1925334974        1.6318204137       34.5581159700
  C         4.3630500033       -1.0458253630       35.1483189671
  H         3.6677655633        3.4899386198       18.5249970166
  H         4.7097856782        3.0028558478       17.3020989583
  C         3.0009152892        1.8076169962       17.6980030712
  H        13.0339312385        2.8526725907       22.8188373893
  H        13.5408949842        3.1644935500       21.1924618031
  C        14.6991858597        1.6692566937       22.2399099200
  S         9.7689405728        9.8702189436       17.5425418175
  N        10.3808487299        9.4608664146       16.1000162840
  C        10.6268285751        7.4167971052       14.6887705942
  H        10.5646417791        5.3442384237       13.8158172716
  C         3.9459956827        0.9227396898       36.1563225638
  N         3.9186659904       -0.4185755698       36.2941091493
  O         4.5542644724       -2.2334650265       34.9674434076
  H         2.1230227645        2.4164229495       17.4698927771
  H         2.7002476978        1.1088253202       18.4812362291
  C         3.1993386142        0.8613642367       16.5707893666
  H        14.4356536016        0.8515267177       22.8589625226
  H        15.2797870352        1.3210707347       21.3835027670
  C        15.4977165529        2.6438314019       23.1771942490
  C        11.0067056283        8.1754870739       13.5329662961
  S         3.4221511065        1.8065885235       37.5681996806
  C         3.9565691342       -1.1761380826       37.5971446818
  H         2.6837461982        1.2185456096       15.7057953318
  H         4.2785897117        0.7505660179       16.3264189221
  C         2.5351277571       -0.4597683831       16.8968687231
  H        15.0269810890        2.7288684463       24.1167045685
  H        15.4434340650        3.6702416987       22.7308042468
  C        16.9109738984        2.1829816415       23.5780533369
  H        10.8885777306        9.2638050107       13.7301988587
  C        11.6670068957        8.0003612729       12.3146168017
  H         3.3834085964       -0.8874670581       38.4723461039
  H         3.7500761453       -2.2402738140       37.5101796417
  C         5.3961855000       -1.1266084751       38.0408739098
  H         2.2625884765       -1.0386645798       15.9816422365
  H         1.5694480657       -0.3126983716       17.4021106458
  C         3.3848348257       -1.4341264415       17.5898021753
  H        17.1621579991        2.6377528941       24.5792290443
  H        16.9489722373        1.1436532777       23.9411687602
  C        17.8800319250        2.5267899841       22.4381321163
  S        12.2953423864        6.5136062621       11.6961913537
  C        11.7729885969        9.1310783471       11.3458526732
  H         5.5167873221       -0.1702350965       38.5770599485
  H         5.5628725307       -1.9596900731       38.6712168334
  H         6.0841551234       -1.3625529947       37.2509269444
  H         2.8612936101       -1.8276197115       18.5276599299
  H         4.3556667135       -1.1038242315       17.8472226427
  H         3.7063012739       -2.2948868604       16.9731955962
  H        18.9674548952        2.3726020988       22.6349720884
  H        17.7838262776        3.6072134619       22.3221083302
  H        17.7103337130        2.0971127745       21.4863176696
  C        12.6129540507        7.4372628370       10.1519118728
  N        12.2553455344        8.7159546813       10.2019577219
  O        11.2591981789       10.1964816973       11.4847423183
  S        12.9937758677        6.6036617118        8.6634447225
  C        12.4615771694        9.6074357024        8.9818395182
  H        12.8261390115       10.5821635736        9.3613932113
  H        13.3332660065        9.4004822133        8.3299188977
  C        11.2840232743        9.6195683749        8.1008577268
  H        11.3783863100        8.7801583881        7.3890962738
  H        10.3750303712        9.5076304805        8.6991505578
  H        11.2687827288       10.4744138022        7.4486210515
  H        22.0762706002        8.7968907205        3.9094548107
  C        22.4173422115        9.8344499217        3.6501015345
  H        23.2463744544        9.8318061579        2.9216683212
  C        23.0360735669       10.3152140063        5.0452146558
  C        21.2936332954       10.7796954949        3.2040600656
  C        21.9859131839       10.6193169562        6.0849945436
  H        23.6739931815        9.5162458258        5.3852958379
  H        23.7409220130       11.0807979693        4.8356391156
  H        20.2881121958       10.3681063631        3.4343561851
  H        21.3766166802       10.8147493716        2.0483902855
  H        21.2910372519       11.7784647922        3.6791755639
  C        20.9733943082        9.5274343025        6.4017338412
  H        22.4943944811       10.7232638385        7.0117622732
  H        21.5722093435       11.6041559860        5.8177434611
  C        20.3594795463        9.7491130955        7.7790573057
  H        21.4306261454        8.5419642777        6.4630263414
  H        20.1852240688        9.5109679583        5.6071774936
  C        19.1528734510       10.6662950162        7.6668602955
  H        21.0080077117       10.2056771955        8.4460237394
  H        20.0237893952        8.8127196652        8.2877872441
  C        17.9690281528        9.9312397555        7.0069944046
  H        18.9177952368       11.0594824325        8.6592551036
  H        19.4703808810       11.5053016980        7.0996956654
  C        16.7090992633       10.7797578215        6.8355287184
  H        17.8136334509        9.1099087713        7.7098503196
  H        18.2198127147        9.4675163405        6.0488224793
  C        17.1199004216       12.1536231392        6.2025823780
  C        16.3990403224       11.5328119668        8.1146316499
  C        15.4778575131       10.1678456109        6.1309545162
  C        16.8241725601       13.2135454415        6.9759512892
  C        17.6564190468       12.5502327790        4.9759903475
  C        16.3427962348       12.8690051082        8.2304483697
  C        15.9571774343       10.8344801576        9.2257138838
  H        15.8081248210        9.8100726828        5.1498483330
  H        15.1097744411        9.3303540004        6.7328003496
  C        14.3613116964       11.1933859037        5.8424438106
  S        17.0242839847       14.7667556475        6.2024741942
  C        17.7202868117       13.9390637229        4.8459490982
  H        17.8833282613       11.7349368203        4.3548609406
  C        16.0249038048       13.4209257496        9.4423522250
  H        15.7343828094        9.7970590733        9.1288256403
  C        15.5931987294       11.4194378768       10.4136253170
  H        14.7421552774       12.1803492070        5.4143055939
  H        13.9011626267       11.4183436297        6.7639610063
  C        13.2208815452       10.7268835002        4.8457268642
  C        18.1631026646       14.6566667620        3.5337967313
  C        15.5127665489       12.7651266728       10.5136412195
  H        15.9211651024       14.4485354828        9.3854622416
  C        15.1333821546       11.0370923200       11.6589030343
  H        12.4117465440       11.4561997027        4.8881480762
  H        12.7052561916        9.8287729382        5.2026819060
  C        13.7102267470       10.7383864439        3.3460390225
  C        18.2019246481       16.0665093885        3.3946354268
  C        18.7608386819       13.8828952300        2.4550545674
  C        14.9461012690       13.4285639543       11.7539853512
  C        14.8258092728       12.1263981388       12.4455642364
  S        15.0172585463        9.5190355391       12.4678681944
  H        14.6232905806       10.1646422626        3.2113213227
  H        14.0303287156       11.8124420137        3.1041716697
  C        12.6069920371       10.1949938930        2.4008396760
  N        17.8397666175       17.0167552492        4.3396512793
  C        18.4502929611       16.6561273168        2.1668815266
  C        19.0662338894       14.5376666351        1.2662018202
  H        18.9926934609       12.8987834679        2.5925433965
  C        13.6186721002       14.2338326380       11.3987466700
  C        15.9272127109       14.2967090292       12.5972391416
  C        14.4740797875       11.7177426274       13.7678095567
  C        14.5427983432       10.3821942122       13.9338350057
  H        12.0077528317        9.5456265213        3.0581505042
  H        11.8772387504       10.9790059314        2.0166588586
  C        13.0264243794        9.3979968780        1.1520897194
  S        17.9728107874       18.4643298876        3.7066231679
  N        18.3155688225       18.0386395242        2.1531126676
  C        18.7823523788       15.9643700521        1.0245177921
  H        19.5400210041       13.9050120158        0.5290822104
  H        13.7771037975       14.9352635556       10.5637461435
  H        13.3385912478       14.8312588535       12.3197623884
  C        12.3634008975       13.4472701149       11.0959742180
  H        16.3482354973       15.2670172180       12.2050259434
  H        15.3629198740       14.6158658695       13.4842443726
  C        17.1906694149       13.5736249411       13.1578020851
  H        14.0531605647       12.2797971279       14.5309821868
  C        14.1208206655        9.6306831997       15.1992336391
  H        12.2512320397        8.9242611540        0.7270872209
  H        13.7262495580        8.5808451805        1.3939942104
  C        13.8408532015       10.3442409676        0.2094234867
  C        18.8373301000       16.6376414273       -0.2231898949
  H        12.5712471672       12.9199502342       10.1432973211
  H        12.2127282750       12.6927609275       11.8921902363
  C        11.0268880514       14.3070238189       11.0267573947
  H        17.6796126930       13.1149816319       12.3028982843
  H        16.8649670447       12.8026598498       13.8954015621
  C        18.1614387876       14.5923771049       13.7868887127
  C        14.0937059024        8.2073113002       15.3289254161
  C        13.8706498741       10.3513573020       16.5145744125
  H        14.2864182144       11.1491831661        0.7575406061
  H        14.6454982502        9.7649253405       -0.2951635908
  C        12.9516081229       10.8853636967       -0.9314810067
  H        18.6537303359       17.7048948645       -0.2848978646
  C        19.1814248386       16.0885643817       -1.4887434118
  H        11.2219087929       15.2331493139       10.4688966218
  H        10.7856192935       14.6512924262       12.1022984084
  C         9.8582273953       13.4818679980       10.5377690029
  H        18.2951566941       15.3571386480       13.0444223250
  H        17.6981148355       15.0813448380       14.6253216547
  C        19.4768578802       13.9617858420       14.3107113396
  N        14.3550338010        7.2928926960       14.2738011693
  C        13.6910396938        7.5493544298       16.4844225612
  C        13.4770894816        9.7055899688       17.7271681691
  H        14.0008224781       11.4286289061       16.5853287403
  H        12.2436111042       10.1403316933       -1.2341988765
  H        13.5301365184       11.1053248565       -1.8683983473
  H        12.4877541842       11.7764622469       -0.6516564305
  S        19.5799199237       14.4288986621       -1.8962600407
  C        19.2855272057       17.0764290368       -2.5847932088
  H         9.9932281669       12.4326849805       10.7999860579
  H         8.9578489026       13.7617327101       11.0365291047
  C         9.6223585241       13.3011579587        9.0444044350
  H        19.9956350870       13.3920481816       13.5853538351
  H        19.0682050499       13.2832785569       15.0688938193
  C        20.3798778801       15.0127748101       14.9536323157
  S        14.1106762295        5.8098317818       14.8029361462
  N        13.6974230216        6.1263076466       16.3349944376
  C        13.4058246642        8.1936544455       17.6733613680
  H        13.4267849870       10.2368486079       18.5945615249
  C        19.8104282369       15.0929840193       -3.5170712328
  N        19.7723717631       16.4920755772       -3.6805717350
  O        19.1280322319       18.2830104700       -2.4390348716
  H         9.5662555725       14.2588380534        8.5578691071
  H        10.5555982320       12.9466049826        8.7729543187
  C         8.4731309727       12.3245882188        8.6671539344
  H        19.7207307337       15.4104951999       15.7711907248
  H        21.1995706967       14.5558555679       15.5067870696
  C        20.7764400022       16.1234996873       14.0215408062
  C        13.0119172378        7.4409627052       18.7925692959
  S        20.3774744149       14.0509432283       -4.7630372425
  C        19.7697111335       17.2071914199       -4.9553264719
  H         8.8308501040       11.7498190138        7.7747681582
  H         8.4210068651       11.4421686893        9.3885097472
  C         7.1410692117       13.0955237392        8.2467702672
  H        19.9429765255       16.8473950943       14.0535833617
  H        20.7229673644       15.7438095266       13.0253580524
  C        22.1380511122       16.8177728441       14.4149855120
  H        13.1027062906        6.4225771545       18.6533432113
  C        12.4354201852        7.7418688672       20.0019812017
  H        20.4812611575       16.8689236824       -5.6998306150
  H        20.1000036526       18.2667970989       -4.7818798520
  C        18.3997800541       17.4665562340       -5.4354753555
  H         6.5988847149       12.5208578848        7.5254757268
  H         7.4834623793       13.9597394923        7.6717498769
  C         6.3264646965       13.4868859969        9.5271650010
  H        22.8458008284       16.0480255945       14.4753075082
  H        22.3231657013       17.5259262602       13.5955656995
  C        22.1591112388       17.6261539641       15.6802391885
  S        11.8629618311        9.2072824180       20.6819769574
  C        12.1659212621        6.5891243980       20.8747332627
  H        17.9925818862       18.4115669669       -5.0529273486
  H        17.8322318402       16.7257262203       -5.0346895971
  H        18.4141841680       17.3842218338       -6.5305923358
  H         5.3835080677       13.9087915060        9.2416547868
  H         6.1574213190       12.6449886271       10.1683494966
  H         6.8607548100       14.3130901244       10.0537458487
  H        21.9108414134       16.9611827130       16.5182211927
  H        23.1674454497       17.9090000074       15.9472904151
  H        21.4138459318       18.4302008506       15.5518567642
  C        11.4036015740        8.3378925177       22.1222140577
  N        11.5948437598        6.9812360364       22.0083284579
  O        12.3988577706        5.4413956138       20.5156328140
  S        10.8245820376        9.0126396902       23.5511913024
  C        11.6057709186        6.0620764493       23.1777458644
  H        11.3384321136        5.0476473251       22.9198885200
  H        10.7938847239        6.4824277408       23.8343284126
  C        13.0287029274        6.1076783091       23.8489525160
  H        13.6841573759        5.4023844142       23.2799663752
  H        13.0085183202        5.8792872708       24.8987179383
  H        13.4702490596        7.1528282068       23.7317413374
