352
 i =    33500, time =    33500.000, E =        25.1387556791
  H        12.1421175731        7.4227852447       32.1229378150
  C        11.8611324766        6.3732197378       32.1711956997
  H        12.6710834505        5.7104198655       31.7890963425
  C        10.7229751118        6.1427227273       31.1764097382
  C        11.3743897432        5.9810867971       33.5967708168
  C        11.2529050642        6.0374957573       29.7163871145
  H        10.0974009723        5.3073274462       31.4548049140
  H        10.1215489980        7.0563019070       31.3216560938
  H        10.7122249476        5.0865023481       33.5668880409
  H        12.3681422370        5.6533234214       34.0498946723
  H        10.9907490384        6.7795630478       34.2321847120
  C        10.1452983239        5.7786399642       28.7730705558
  H        12.0044059811        5.2102240679       29.6975071921
  H        11.8121832391        6.9449745882       29.5133154374
  C        10.6381645679        5.9149972645       27.3545300767
  H         9.7308162570        4.7226123564       28.9058425416
  H         9.3493497863        6.4945180326       28.8038460449
  C         9.7775547061        5.2477976572       26.2595811206
  H        11.6627100699        5.5494342706       27.2872996409
  H        10.6353461559        6.9575504672       27.1276385243
  C         8.4994282449        6.0200714695       25.9705307087
  H        10.2761930038        5.1430105596       25.2593511716
  H         9.5461608012        4.1976012758       26.3739570995
  C         7.3379489643        5.2278601374       25.2386311775
  H         8.0570512778        6.2671743085       26.8984035424
  H         8.8272803168        6.9349984448       25.4667662013
  C         7.0939536452        3.8028996486       25.7960161015
  C         7.7315552327        4.5113151096       23.9746318520
  C         6.0734305901        6.0820808459       25.0701727703
  C         7.4930116123        2.7165010525       25.0718946567
  C         6.6256339951        3.4014100843       27.0487540418
  C         7.8181056129        3.1744004132       23.8411436042
  C         8.0575616642        5.2727912828       22.8204890987
  H         6.2012373868        6.8685361741       24.2766412581
  H         5.7995606208        6.7749912228       25.8850400278
  C         4.7893368804        5.3362626153       24.5508530319
  S         7.2547601056        1.1344238499       25.7685120176
  C         6.5912855873        2.0556370648       27.1567448205
  H         6.3194228013        4.1590922629       27.7584432901
  C         8.2126400031        2.6266843674       22.6732595153
  H         7.9114154859        6.4053893383       22.8327864166
  C         8.4447336719        4.6674600717       21.6512491701
  H         4.9040553967        4.9011993326       23.5788212529
  H         4.6804279381        4.4424946634       25.1075138985
  C         3.5709352131        6.2992846336       24.4652759205
  C         6.0531877961        1.3939610330       28.3469038723
  C         8.5228689332        3.3325423547       21.5008330445
  H         8.3632214188        1.6196957147       22.4576504297
  C         8.8695986799        5.1116050633       20.4165240335
  H         2.8245100552        5.8300246652       23.7881113680
  H         3.6775752034        7.1709238353       23.8521196366
  C         2.8488113211        6.5301014002       25.7372474469
  C         5.9382428023        0.0229965173       28.5839035140
  C         5.5384220453        2.2562538169       29.3980826696
  C         8.8560157731        2.6480578076       20.2451330582
  C         9.0680725498        4.0216972951       19.5244653664
  S         9.3088341284        6.6155136045       19.6426760072
  H         1.8770733426        6.9774965382       25.5598260920
  H         3.4567968424        7.0841174995       26.4822074725
  C         2.4295571442        5.2320131807       26.5100292762
  N         6.2199139562       -1.0019024003       27.6983997676
  C         5.6067263353       -0.4486189495       29.8619134793
  C         5.3462457064        1.7697948962       30.7186187683
  H         5.5456006961        3.3100358393       29.2564909215
  C         7.7716234892        1.9023196372       19.6192393752
  C        10.1738898610        1.8612063788       20.2359797328
  C         9.5616696079        4.4306826420       18.2829982190
  C         9.7074160867        5.8032581766       18.1527897832
  H         1.9168620097        4.4449731154       25.8723457400
  H         3.3257248798        4.8576190228       26.9330759746
  C         1.4475432896        5.7112401358       27.6271618445
  S         5.8957829596       -2.4579946732       28.4143827889
  N         5.5764042663       -1.8543586662       29.9167025916
  C         5.3184795348        0.3524624820       31.0166729952
  H         5.0346411569        2.5292168516       31.4881943458
  H         7.4502387528        1.1735769305       20.3532222346
  H         8.1768488413        1.4176012179       18.7029338532
  C         6.5067013871        2.6975745674       19.2171827240
  H        10.4098554573        1.5288578899       19.1962537411
  H         9.9356611554        0.9582579445       20.8143944756
  C        11.3894357767        2.6967834944       20.6566988106
  H         9.7512061686        3.7135164699       17.5241701716
  C        10.1719778886        6.5661301129       16.9834542146
  H         0.9299918041        4.8466450950       28.1619655815
  H         0.6878659939        6.3448082763       27.1582139314
  C         2.0940924628        6.5197230138       28.7493149812
  C         5.0352367729       -0.2355854496       32.2551237766
  H         6.7510055078        3.3542267213       18.4100277878
  H         6.2870626858        3.3359278282       20.0407145487
  C         5.3426189560        1.7210240144       19.0409373796
  H        11.1929242142        2.9710851631       21.6977010771
  H        11.5825315742        3.6031971794       20.0697837378
  C        12.6785760396        1.8347930517       20.5889758518
  C        10.2144270702        7.9179475482       16.8171096031
  C        10.5887295434        5.8304278846       15.7542492463
  H         2.5477167705        7.4327133636       28.3117268169
  H         1.2864712819        6.8278057790       29.4516407996
  C         3.0946072560        5.7854265958       29.6616569870
  H         5.1343633609       -1.3302754392       32.3513511031
  C         4.6155649102        0.2710375621       33.4786513335
  H         5.0056804096        1.2696793475       20.0503191307
  H         5.8957711137        0.9164160760       18.6183465351
  C         4.3166096452        2.2654190500       18.0102827296
  H        12.5606517273        1.1319486587       21.4449095905
  H        12.7298648882        1.2217412092       19.6642489002
  C        14.0118077603        2.6007767169       20.7342597949
  N         9.8101652842        8.8123785288       17.8370419605
  C        10.6559551084        8.5683427512       15.6850792383
  C        10.9696481578        6.5465669862       14.5585957773
  H        10.5893101886        4.7170519045       15.7610361186
  H         2.5503713141        4.9749355256       30.1486519812
  H         3.9684623042        5.4308387376       29.1007494364
  H         3.4360023092        6.4679534204       30.4639739614
  S         4.2633437374        1.9314110087       33.9457534813
  C         4.5247586399       -0.7454212464       34.5674800628
  H         3.9371492999        3.1796234577       18.5582007227
  H         4.8721251929        2.6907973483       17.1768897268
  C         3.1005529042        1.3656292374       17.7519108248
  H        13.8919070942        3.6493025730       20.3139117875
  H        14.7264992945        2.0457608202       20.1459783509
  C        14.3916393720        2.8708974961       22.2906589816
  S         9.8305882071       10.3722035646       17.2809783683
  N        10.6094816026        9.9590447105       15.8814458771
  C        11.0413616214        7.9780541000       14.5316963201
  H        11.2463558240        5.8936895721       13.6815958189
  C         4.2668634496        1.2404905613       35.6148964013
  N         4.3123472017       -0.1082203248       35.7124547541
  O         4.5589271833       -2.0050239343       34.3938690477
  H         2.3529393684        1.9355743460       17.2674213740
  H         2.7011245180        1.1869701767       18.7267451746
  C         3.4108397709        0.1102090503       16.9485251092
  H        15.0607145523        3.7740169142       22.2878281732
  H        13.4765330897        3.1974830193       22.6881871841
  C        15.0569574579        1.7306341260       22.9346197758
  C        11.5283792476        8.7475667713       13.3922362787
  S         3.7869634381        2.1583113213       36.9786146679
  C         4.3201352525       -0.8275271477       36.9956388761
  H         3.3975451030        0.3646410767       15.9246181785
  H         4.4337536148       -0.2976528209       17.0856783473
  C         2.4800368660       -0.9952994840       17.3776907607
  H        14.9864294386        0.9385979798       22.1723930611
  H        14.4360351440        1.4740685710       23.8331821564
  C        16.4369034246        2.0999941294       23.4771691986
  H        11.3914631050        9.8098716696       13.4766304775
  C        11.9279651875        8.4137200932       12.1117715925
  H         3.6311657186       -0.4293640118       37.7536582490
  H         3.8660613330       -1.8041503670       36.8322185495
  C         5.7032246683       -0.9971397977       37.6117144773
  H         1.5273260622       -0.5587605339       17.0726991933
  H         2.6276629891       -1.0371124069       18.4707115609
  C         2.6700562051       -2.4215102860       16.7690753340
  H        16.3976671280        3.0112308602       24.0792107015
  H        16.8061018503        1.2168398394       24.0462232050
  C        17.4921938161        2.3714018628       22.4082994619
  S        12.3291661387        6.8508990641       11.5644310403
  C        11.9628023802        9.4987284157       11.1016369279
  H         5.9453023263       -2.0619194690       37.7444499772
  H         6.4687109559       -0.5497122239       36.9981488831
  H         5.8076644253       -0.4101000904       38.5039400771
  H         2.0854895759       -3.2273753453       17.1556825684
  H         3.7200130635       -2.6945720738       16.8592002634
  H         2.3977689600       -2.2952650218       15.7177766537
  H        17.7294088055        1.4957488484       21.8357239935
  H        18.3996845398        2.6214824214       23.0403829259
  H        17.2784788552        3.2476973630       21.7327822750
  C        12.5197487922        7.5678779905       10.0038182328
  N        12.3614574367        8.9122392557        9.9369980923
  O        11.6139503034       10.7031146774       11.2828162651
  S        12.9225793780        6.5852134729        8.6150168913
  C        12.5686221714        9.7099879403        8.7071176935
  H        12.7866307804       10.6826438069        9.0250851392
  H        13.3103093323        9.2703071846        8.0179469272
  C        11.2886057512        9.5872059562        7.8843203815
  H        11.0208856301        8.5577672415        7.6275613478
  H        10.4655206129       10.0456499984        8.3902268593
  H        11.4047872935       10.0463934350        6.9085071425
  H        21.3248250440       11.2150624374        3.1684881975
  C        22.0162428757       10.4115891894        3.2865880738
  H        21.4805160837        9.4592971810        3.3183198875
  C        22.9086910026       10.5080156395        4.5309285115
  C        22.7666483842       10.3403784518        1.9405586500
  C        22.2370791529       10.8972784273        5.8739262598
  H        23.3279978069        9.5333432789        4.7403884548
  H        23.8075818604       11.1814986884        4.3167064239
  H        22.5983336456       11.2351067297        1.4395953220
  H        22.4367132700        9.5420373854        1.2569263021
  H        23.8447871589       10.1416659549        2.1130422030
  C        21.4433851535        9.7517310873        6.4807961305
  H        22.9430475068       11.2779098330        6.6319671625
  H        21.5058862006       11.7827634686        5.6282355456
  C        20.8159623668       10.1882144923        7.8279734760
  H        22.1379564138        8.9411381728        6.8121566681
  H        20.7014388701        9.3567917532        5.8147292405
  C        19.5189029307       10.8616005759        7.6927754397
  H        21.4624061355       10.7936267779        8.4255156609
  H        20.6883718702        9.2921201034        8.4186261532
  C        18.3082776265        9.9716286464        7.2777175705
  H        19.3127803541       11.3661372089        8.6854518529
  H        19.6618893359       11.6957636039        7.0271542922
  C        17.1035442233       10.8726338322        7.0536223827
  H        18.1814600608        9.2531560082        8.0154469611
  H        18.5026584843        9.4381554555        6.3762907690
  C        17.3634284599       12.1613541077        6.2326177061
  C        16.4952436596       11.5534145130        8.2093431998
  C        15.9564512141       10.1445403646        6.3045884168
  C        16.9731157299       13.2988875356        6.9813786805
  C        17.8860337263       12.5320747888        4.9710356740
  C        16.3707709130       12.8760177301        8.2178444341
  C        16.0866210336       10.9015240421        9.3527006921
  H        16.3153379026        9.9739768361        5.3516785916
  H        15.6642335995        9.1501629513        6.6626968164
  C        14.6860432710       10.9794596901        6.0922403461
  S        17.3951982563       14.7911810795        6.2203190522
  C        17.9007715944       13.8765654413        4.7944162375
  H        18.1714549046       11.7239983604        4.2730154344
  C        15.8436804812       13.4982926781        9.3166290458
  H        16.3498915330        9.8811143056        9.4431579386
  C        15.5570085339       11.5392427462       10.4874416098
  H        14.8533863103       11.8996813662        5.5168071462
  H        14.1841193963       11.2225879088        7.0229469119
  C        13.6439728900       10.2447381455        5.2088339757
  C        18.2246432439       14.5250825145        3.4807028946
  C        15.5152281667       12.8465556281       10.4991228060
  H        15.8142282193       14.5658081202        9.2659269776
  C        15.0713579113       11.1612941174       11.6999752766
  H        12.7303067785       10.8074781830        5.2415323541
  H        13.4543601775        9.2220178299        5.5978770266
  C        14.0748237283       10.0871461591        3.7303267642
  C        18.1134947147       15.9233743304        3.1784287237
  C        18.8507811687       13.6545579957        2.4372656844
  C        15.1451360673       13.6213090683       11.7243726421
  C        14.8676544818       12.3147781678       12.4810497915
  S        15.0092469426        9.6674014049       12.5308144344
  H        14.7485357904        9.2792966563        3.5410618619
  H        14.6464293741       11.0007889013        3.4383165453
  C        12.8272729206       10.0876991860        2.7506792185
  N        17.4906214613       16.8483821987        3.9962859912
  C        18.5614239388       16.3745751094        1.9714632949
  C        19.1559527772       14.2491513156        1.2061049862
  H        18.9713669505       12.5549047633        2.4939586122
  C        13.8750308317       14.5606655408       11.6143612803
  C        16.3246095112       14.4383087886       12.3468986399
  C        14.5004398902       11.9074384763       13.7376642906
  C        14.5205466144       10.5269536472       13.9232141789
  H        12.3405080106        9.0987529196        2.7780264057
  H        12.0191992510       10.6615766981        3.1802004097
  C        13.2193992814       10.3665721181        1.2582245702
  S        17.6555233089       18.2750428896        3.2694244539
  N        18.3492189264       17.7995054596        1.8873496562
  C        19.0032094489       15.6337089834        0.9069636360
  H        19.6182362557       13.6857146131        0.4420322643
  H        13.9922004219       15.3146869629       10.9215339455
  H        13.7693433255       15.0043148392       12.5715331998
  C        12.7053612832       13.7779542707       11.1704734177
  H        16.6876087659       15.0352840367       11.5160647705
  H        15.8502899055       14.9391199084       13.1495000182
  C        17.5282919019       13.7140759260       13.0401191587
  H        14.3202800056       12.6893729925       14.4513897030
  C        14.2500408534        9.7234625638       15.1319190364
  H        14.2232005786       10.1104433623        0.9508076988
  H        13.1870159302       11.4099435739        1.1038337968
  C        12.1671976011        9.8710824042        0.3229987995
  C        19.2093764911       16.2593485243       -0.3576374268
  H        12.8328950367       13.3117861700       10.1782911720
  H        12.4368850445       13.0394540640       11.9734901306
  C        11.5738466553       14.6880013937       10.8837779013
  H        17.8323141804       12.9254188401       12.3745857838
  H        17.1084243318       13.2993620837       13.9665734504
  C        18.6341918423       14.6829723177       13.5323446422
  C        14.2659176123        8.3079401922       15.3250160887
  C        13.8753883833       10.5058110660       16.4132322356
  H        12.1143080833        8.7743794220        0.2039700898
  H        11.2240003534       10.2987621511        0.5917119064
  C        12.3080441680       10.3576539371       -1.1274879454
  H        18.9390044490       17.2268102946       -0.3253843269
  C        19.4911978099       15.7495636043       -1.6306982787
  H        11.8046381419       15.2219485945       10.0471690358
  H        11.5444670323       15.4209960681       11.6811155795
  C        10.2450212724       13.9039332664       10.7350304682
  H        18.9845179167       15.1399023745       12.6015829556
  H        18.2378044679       15.4084004283       14.2671622995
  C        19.7950256689       13.9723794765       14.2907864649
  N        14.4549434433        7.3546013810       14.3073524262
  C        13.9460209905        7.7006720714       16.5507180085
  C        13.5200213583        9.8826611752       17.5831671163
  H        13.8722573922       11.5908974503       16.3993825582
  H        13.1793601111        9.8090956178       -1.5363989267
  H        12.4839503738       11.3987108252       -1.2129663282
  H        11.4408044372       10.0044220145       -1.7636596269
  S        20.0404328979       14.1636053355       -2.0302548492
  C        19.5453805350       16.7081629320       -2.7122427482
  H        10.4928180513       12.8126769543       10.7399137367
  H         9.5813334161       14.1388301586       11.5841859246
  C         9.4652907273       14.3165253963        9.4585272519
  H        19.9168076852       12.9989041044       13.7491688081
  H        19.3529444843       13.6753667889       15.2514006007
  C        21.0660480462       14.7388969204       14.5324094168
  S        14.4801105568        5.8699461527       15.0010872902
  N        14.0638362609        6.2783084820       16.5402744170
  C        13.5254121340        8.4114785497       17.7128595569
  H        13.1563278492       10.4864772232       18.3992296368
  C        19.8662410185       14.6710168222       -3.7521782189
  N        19.7776008423       16.0280952101       -3.9135635723
  O        19.4372511408       17.9227197723       -2.5286561316
  H         9.0867123350       15.2758914771        9.4478626924
  H        10.1690050949       14.1353680499        8.6424477684
  C         8.2324094154       13.3778734798        9.2547614575
  H        21.6659484546       14.2686031079       15.2562344312
  H        21.6813751994       14.7076689175       13.6528132003
  C        20.7756949760       16.1159593348       15.0526378982
  C        13.2286417656        7.7253821972       18.9240927542
  S        20.3286207547       13.6762166147       -5.1506132710
  C        19.8976314693       16.7771609578       -5.1466024213
  H         8.5453770834       12.5576707580        8.5805429388
  H         7.7985055741       12.8951077550       10.1394822720
  C         7.0438280943       13.9263998758        8.4880923471
  H        20.3039730621       16.1074924579       16.0106969021
  H        20.1585909607       16.6844226911       14.3582884048
  C        22.0153561937       17.0321309663       15.1345407152
  H        13.7150783477        6.7225290679       19.0820152737
  C        12.6690324260        8.0283706949       20.1079706509
  H        20.5844175975       16.2136404142       -5.7777010700
  H        20.3110668195       17.7801492436       -5.0535597083
  C        18.4672230590       16.9424258242       -5.6406500472
  H         6.7451701922       13.2144171838        7.6900878364
  H         7.4080470855       14.8431387661        7.9458594340
  C         5.7644428271       14.1351021505        9.3899912361
  H        21.8582070792       17.9724470691       15.6910703132
  H        22.8118069752       16.4264338913       15.5742853563
  C        22.4542634646       17.5843065641       13.7598868731
  S        11.8225325467        9.5612083231       20.5757751513
  C        12.6042919715        6.9898407780       21.2111297802
  H        18.4145092513       16.3578237541       -6.5757429662
  H        18.3805177352       17.9863499522       -5.6915406884
  H        17.7678320342       16.5440157276       -4.8914385632
  H         5.9927573518       14.7164800335       10.3555289442
  H         4.9960771369       14.6405452746        8.8858976134
  H         5.4583268171       13.1341816067        9.7824842125
  H        22.9591765666       16.8314095756       13.1989911531
  H        21.5855034096       17.8790167141       13.1395545343
  H        23.1019903714       18.4658168959       13.7665302899
  C        11.5649580682        8.7904919744       22.1266703710
  N        11.8496637914        7.4998380448       22.2290534758
  O        12.7876542017        5.7529323945       21.0729001412
  S        10.8097136176        9.6093066261       23.4308306638
  C        11.7877254143        6.7527140496       23.4937527950
  H        11.6519683403        5.6868525119       23.2927350772
  H        10.8731212250        7.1664695939       23.9394877743
  C        12.9166481291        7.2532126681       24.4019319405
  H        12.7327486872        8.2353141356       24.8076398833
  H        13.8622396962        7.3212379047       23.8490121458
  H        13.0793328090        6.4859627289       25.2458188909
