352
 i =    58300, time =    58300.000, E =        24.6255404498
  H        10.6734357099        4.0516659002       31.1816324384
  C        10.7150192516        5.0555567166       31.6821704932
  H         9.6549659082        5.3307915199       32.0233392064
  C        11.1290317263        6.1694778440       30.7505570801
  C        11.7075205162        4.9170560987       32.8868213365
  C        11.4510912380        5.6766511075       29.3729851511
  H        10.3310889703        6.9183540246       30.8195707380
  H        12.0225496185        6.7271570741       31.1498199103
  H        12.7265039536        4.8225386606       32.6135525775
  H        11.7093335827        5.8084578257       33.5317255914
  H        11.4359719631        4.0053591484       33.4762968569
  C        10.2259245285        5.6498054464       28.4102056877
  H        11.9456806299        4.7122361111       29.4490349897
  H        12.1994274788        6.3180810977       28.9198713599
  C        10.5973397849        5.5832030499       26.9330260716
  H         9.6057119496        4.7860542771       28.6032982450
  H         9.5221623047        6.5027132786       28.5863310080
  C         9.6359975456        4.6967064660       26.0301117134
  H        11.5505658739        5.1289610491       26.9026137943
  H        10.7997894020        6.5253927443       26.4410152540
  C         8.2813479838        5.4613256049       25.9100297475
  H        10.0904557380        4.3965255664       25.0746244429
  H         9.5553841492        3.7414236839       26.5968984267
  C         7.1616371622        4.6924097660       25.2032304233
  H         7.9618801327        5.5478399627       26.9586701694
  H         8.4147147031        6.5058528115       25.5868560096
  C         6.8549317436        3.3387358238       25.8473576266
  C         7.7427299420        4.0168001013       24.0435464908
  C         5.7680915875        5.4650130572       24.8577485764
  C         7.2307913664        2.2520368733       25.1154477186
  C         6.3632055150        2.9231713385       27.1660221367
  C         7.8418656087        2.6552077214       23.9369084231
  C         8.1089851087        4.7156367221       22.9202660511
  H         5.3143555748        4.9497783203       23.9500191302
  H         6.1638726141        6.4226727102       24.5767307274
  C         4.6734939835        5.6319579382       26.0490209309
  S         6.8655225884        0.7451633014       25.9832622870
  C         6.2827171466        1.5936749958       27.3789292586
  H         6.1859006875        3.7224938899       27.8581665277
  C         8.3076187201        2.0956784761       22.8254543049
  H         8.0326661719        5.7924466364       23.0297129281
  C         8.5779470394        4.1532820206       21.7571515125
  H         4.6073271677        4.6604423181       26.5701794728
  H         5.0658818832        6.2553462673       26.8449029603
  C         3.3432150735        6.1558470335       25.4535526294
  C         5.7759169175        0.9441799698       28.6457787203
  C         8.6435676229        2.7868832643       21.6493209341
  H         8.4135287497        1.0353285848       22.8012044682
  C         8.9889205737        4.6036560213       20.4919721331
  H         2.9414246797        5.4326985758       24.7152231340
  H         3.6425702993        7.0983738642       25.0034262152
  C         2.3255274812        6.4233591047       26.5402906218
  C         5.8518720329       -0.4338117284       28.9404476271
  C         5.3525564525        1.8625355323       29.7450573906
  C         9.0451937398        2.2031939259       20.3149532144
  C         9.2866282867        3.5868225641       19.6888998562
  S         9.3482404675        6.1566895506       19.9055989103
  H         1.5656855146        7.0732785276       26.0921526772
  H         2.6914802454        6.9739254151       27.4057975079
  C         1.6880480745        5.0728737847       26.9132228777
  N         6.2812373942       -1.4254362997       28.0042135949
  C         5.5405705195       -0.9087227385       30.1677057066
  C         5.0483933081        1.4065648792       30.9822245446
  H         5.3418491266        2.8770827440       29.5146562621
  C         7.8597557774        1.5821871452       19.5230814148
  C        10.3167693503        1.3331635117       20.3095163925
  C         9.6878903687        4.0373786301       18.4401267215
  C         9.7522971061        5.4282322636       18.4078422227
  H         0.9295918143        4.7498388904       26.1652639788
  H         2.4131055131        4.3152618009       26.9960705317
  C         0.9266175790        5.0371785080       28.2107785258
  S         6.2142880480       -2.8718136692       28.7710143400
  N         5.8364589110       -2.2833149475       30.2220286777
  C         5.1877268531       -0.0684483267       31.2115630550
  H         4.9016108843        2.1225043069       31.7563526400
  H         7.7108953662        0.6825790215       20.0874564781
  H         8.2463867040        1.2497798729       18.5815786093
  C         6.5617122980        2.4776272170       19.3866299264
  H        10.7970069376        1.0160329716       19.3752725234
  H        10.0134977762        0.3807237921       20.7479565500
  C        11.4458078453        1.9077839222       21.2061418547
  H         9.8302298649        3.3400529594       17.6175840338
  C         9.9833246519        6.3063400018       17.2328009716
  H         0.1642209918        4.2559272709       28.2089608120
  H         0.4022288813        5.9971956719       28.3754109704
  C         1.9161855986        4.8094330587       29.3909811949
  C         5.0226338791       -0.7075861900       32.5012945136
  H         6.6034746568        3.3066238312       18.7139182838
  H         6.3631623167        2.9934690880       20.3237304981
  C         5.3582888410        1.5973497402       18.9791305762
  H        11.1639283707        1.7709628572       22.1954480125
  H        11.6530477564        2.9373780264       20.8344646591
  C        12.7707849555        1.0198188005       21.2124472394
  C         9.9217935474        7.7088682106       17.1480484302
  C        10.3572712718        5.6004908138       16.0090499269
  H         2.2812205591        3.7921066477       29.3695583179
  H         2.7359851296        5.5592530498       29.3530190103
  C         1.1887268449        4.7544984652       30.8058562079
  H         5.4529019849       -1.6732885982       32.6096436435
  C         4.9303010615       -0.1632754851       33.7648242394
  H         4.9723610048        1.0567257841       19.8370684793
  H         5.7585262739        0.8777355468       18.2763167256
  C         4.1519773589        2.4628364960       18.5815013041
  H        12.7017376324        0.4355507909       22.0846430368
  H        12.8268787207        0.3148053712       20.3923565027
  C        14.0461666510        1.9187266324       21.3165422944
  N         9.8155956065        8.5421265460       18.2880661438
  C        10.1420378697        8.4011669269       15.9421731058
  C        10.5851237769        6.3439465750       14.8474845135
  H        10.3865114347        4.5056236835       15.9280045457
  H         0.2744319650        4.1530610728       30.8032276314
  H         1.8399958714        4.4061564601       31.5857740855
  H         0.9211097443        5.7548808421       31.1198826193
  S         4.7611895130        1.4284181538       34.2660324652
  C         4.8106799820       -1.2084430765       34.8116098460
  H         4.1494343741        3.2129648938       19.3155953816
  H         4.2465167744        2.8910099125       17.5563588395
  C         2.8645270185        1.7177447487       18.5456082718
  H        13.7566435970        2.8138005165       20.7410220913
  H        14.7828268193        1.3385904119       20.7325840978
  C        14.5357102862        2.3363896215       22.7462304690
  S         9.7665823867       10.1381159223       17.7090938369
  N        10.0306965135        9.7745878016       16.1724907631
  C        10.4291583504        7.7848533116       14.6933360663
  H        10.8732130957        5.7008256977       14.0404040223
  C         4.3159144004        0.7339379566       35.8416324161
  N         4.4789012017       -0.5903601369       35.9891612724
  O         4.7790978540       -2.4236243095       34.6074118028
  H         2.0069513244        2.4297861060       18.4366549563
  H         2.6237166653        1.1543179586       19.5178997683
  C         2.7331547817        0.6738322646       17.4448036724
  H        13.8907670368        3.1271682548       23.1909911077
  H        14.5057628170        1.5302105539       23.4308241153
  C        15.9624419876        2.9218894092       22.5888060988
  C        10.5552754061        8.4993694846       13.4784364396
  S         3.8700249328        1.6099947579       37.2913533401
  C         4.4245639372       -1.2953149720       37.3308151705
  H         2.1336605372        1.3133558378       16.7005680782
  H         3.7117524602        0.4061037983       17.0410036785
  C         2.0040565374       -0.5398893181       17.7838902589
  H        16.3123156237        3.2364049221       23.6295274400
  H        15.9968115980        3.7725778945       21.8962184661
  C        16.8952236650        1.7911474877       22.1413993259
  H        10.4055731139        9.5441473089       13.5721104225
  C        11.0524131882        8.2290275500       12.2540419052
  H         3.7668451239       -0.8540832195       38.0429705293
  H         4.0001459744       -2.2464173496       37.1210999268
  C         5.8587291755       -1.3636244036       37.9118749660
  H         0.9008008415       -0.4694906428       17.8736323273
  H         2.3548125569       -0.7847939109       18.8513389821
  C         2.4320782152       -1.7770722198       16.9944557216
  H        16.5940443559        0.7778970784       22.4742683980
  H        16.9247694524        1.7561169922       21.0142232270
  C        18.3815168151        2.1455816254       22.4794767651
  S        11.7101705981        6.7431755111       11.7437269420
  C        10.9918065610        9.3199387280       11.2028150267
  H         5.9571559294       -2.2291431852       38.5360822309
  H         6.6508971961       -1.5328050994       37.1704146728
  H         6.1635395771       -0.5216087599       38.4901933242
  H         3.4886206278       -2.0003516968       17.0139655089
  H         2.1705296496       -1.6555215385       15.9918184761
  H         1.9149021484       -2.6068089299       17.4617143621
  H        18.6655179653        3.1893393876       22.3873018299
  H        19.1058092507        1.5259893925       21.9953686393
  H        18.5435622517        1.8135679155       23.5474223052
  C        12.0995977076        7.6051018055       10.2330493239
  N        11.7335910391        8.9156544829       10.1491440864
  O        10.5895461832       10.4861086216       11.4053859774
  S        12.8988407998        6.7968537575        8.7981585513
  C        11.9549684210        9.7645351054        8.9619086344
  H        11.9241238804       10.8146713907        9.1983123032
  H        12.8920851008        9.5526999763        8.3630485419
  C        10.8275258646        9.3826696237        7.9867854084
  H        10.6276282781       10.0907329588        7.1648184675
  H        11.0772791325        8.5485067533        7.4612786054
  H         9.9068405945        9.0791741508        8.4937984940
  H        21.6039040527        9.0008717079        4.0586307220
  C        22.4056638490        9.6511793362        3.6490304661
  H        23.2740492610        9.1091535596        3.4020251171
  C        22.6458636263       10.7008870100        4.7946269549
  C        21.7155782078       10.2887420878        2.3691335502
  C        21.5306016294       10.8018158867        5.8789585833
  H        23.5599498589       10.3566241169        5.3943426296
  H        22.8791427422       11.7041975343        4.3254026590
  H        21.0027579037       11.0416791693        2.8497666912
  H        21.3601882220        9.5125654910        1.8104882472
  H        22.5584395293       10.8722048179        1.8122072055
  C        21.3593179113        9.5010254111        6.7109164626
  H        21.6682932768       11.7204769867        6.4967573506
  H        20.6519666257       10.9460802171        5.2730303892
  C        20.4393919485        9.8714361923        7.8714098985
  H        22.2945450206        9.0811632310        6.9755350754
  H        20.8644061138        8.7189975394        6.1040208063
  C        19.2537517080       10.7948417551        7.6478693920
  H        21.0153107856       10.2680066541        8.7079226943
  H        20.0623134217        8.8561287617        8.2846947350
  C        18.0545393327       10.0911134862        7.0656621173
  H        19.0127743364       11.3000600691        8.5610527579
  H        19.4578776513       11.6590840418        7.0075062122
  C        16.7979173600       10.9861140786        6.7953135305
  H        17.7399517797        9.2609477430        7.7279294094
  H        18.2485668618        9.5213984310        6.1737152215
  C        17.1171452339       12.3328542469        6.2039498861
  C        16.3084154089       11.6600551164        7.9922399669
  C        15.5951197763       10.2296460147        6.1377029544
  C        16.7747138104       13.4255134859        6.9334585051
  C        17.6785363159       12.6752960345        4.9650552713
  C        16.2509122132       12.9656119257        8.1065854956
  C        15.7738032479       10.9106568840        9.0442764626
  H        16.0128707524        9.8060181348        5.2376563961
  H        15.3306191245        9.4109153811        6.8007734723
  C        14.3034606826       10.9970648040        5.9443173520
  S        17.2506820992       14.8791730434        6.1864072029
  C        17.6905121011       13.9998213016        4.7458871188
  H        17.9047708485       11.8777712661        4.3160577087
  C        15.7548218143       13.4513811602        9.2814371667
  H        15.8398045101        9.8885183819        8.9642997001
  C        15.2293237656       11.3957387270       10.1989807860
  H        14.6178433034       12.0119798164        5.7620942829
  H        13.7770388692       11.1672971047        6.9065088214
  C        13.4436693820       10.2442421538        4.9247155930
  C        18.0803592380       14.7402445516        3.4645288588
  C        15.2227276785       12.7545499746       10.3364419695
  H        15.8309526392       14.5578937532        9.2691558150
  C        14.7120065028       10.9607823688       11.3571788014
  H        12.6899499930        9.7303796609        5.5369248779
  H        13.9898513014        9.5168280766        4.4438110489
  C        12.9214303496       11.0877620092        3.8255960815
  C        17.9930358822       16.1594144918        3.2096222085
  C        18.4188534538       13.8756020173        2.2879473788
  C        14.7240514758       13.4031924559       11.5788110899
  C        14.4505708979       12.0065943489       12.1985159644
  S        14.4926277194        9.4537290964       12.1477190706
  H        13.8779283678       11.4475416776        3.3116919117
  H        12.3574346678       11.9597148092        4.2562624223
  C        12.0546540240       10.2492567951        2.8679487129
  N        17.6903685210       17.1007569334        4.1831820662
  C        18.3043013724       16.6991117225        1.9289497294
  C        18.6649085876       14.4138648521        1.0519032021
  H        18.4761621989       12.8468525995        2.4915720176
  C        13.4309559460       14.3030656610       11.5174136757
  C        15.8476032994       14.2871378308       12.2801792984
  C        14.0545515764       11.6193675569       13.4859513626
  C        14.0947121269       10.2511229925       13.6133005024
  H        11.5650386507        9.3809213559        3.3433464935
  H        11.3144506101       10.8523806523        2.4855251842
  C        12.8734798829        9.6391840685        1.6746707751
  S        17.6375615131       18.5256841142        3.4623947046
  N        18.0539248646       18.1245491140        1.9543344600
  C        18.6606357089       15.8915327229        0.8496948166
  H        18.9321020774       13.7037857209        0.2784220660
  H        13.6062412254       15.0311965246       10.6994753997
  H        13.1548119611       14.7410777651       12.4668337662
  C        12.2260025218       13.4828490443       11.0515503025
  H        16.0213154564       15.2517161814       11.8262304473
  H        15.3212552025       14.5609300229       13.2077669401
  C        17.1715769933       13.6029229866       12.6863794786
  H        14.0009198315       12.3831583055       14.2478652729
  C        13.8777353726        9.4412528291       14.9294065213
  H        12.4705072935        8.6959835777        1.3981700188
  H        13.8950874888        9.3748626501        2.0381197500
  C        13.0203722129       10.5236899124        0.4789667744
  C        18.9790458318       16.5241488977       -0.4068719991
  H        12.5085346189       13.0694495761       10.0590841771
  H        12.0290555614       12.7132339860       11.7674793985
  C        10.9641477892       14.4464615635       10.8204762951
  H        17.8433312506       13.5676699364       11.8395440395
  H        17.0391878284       12.5077622125       12.8286359239
  C        17.8692289079       14.1617042290       13.9031242820
  C        13.8421232574        8.0329648851       15.0236281235
  C        13.6302595806       10.1808026878       16.1759774782
  H        13.2846291594       11.5924922469        0.6625795389
  H        13.9121438007       10.1765145116       -0.0351939349
  C        11.8424247883       10.2965729365       -0.4798397242
  H        18.9444432430       17.5709856575       -0.2937166847
  C        19.1815095330       16.1073921404       -1.7039761431
  H        11.2747052116       15.3240686341       10.2067561156
  H        10.6622980976       15.0525350601       11.7058636331
  C         9.8105125411       13.8444313796       10.0625110588
  H        17.8764791035       15.2282530487       13.8571422496
  H        17.3841855552       13.9030912981       14.8365539300
  C        19.3998388629       13.6933315317       13.8767990464
  N        13.9202816827        7.1739715069       13.9402845357
  C        13.5915315929        7.4639859552       16.2112209750
  C        13.3014820794        9.5509969508       17.3888830571
  H        13.5533567541       11.2557597660       16.2087172054
  H        11.8715384186       11.1101296763       -1.2374589040
  H        10.9201457156       10.4004904851        0.0628482802
  H        11.8496974219        9.3418108865       -1.0660381023
  S        19.3843734416       14.5072299041       -2.2659787807
  C        19.1768124863       17.1998370368       -2.7239750260
  H        10.1381941588       13.1618424802        9.2881255708
  H         9.1974885606       13.1681430773       10.7339384839
  C         8.8740626033       14.8394166316        9.4529016535
  H        19.4478572723       12.8074411519       13.2988486625
  H        19.7033613560       13.3790617446       14.8709245418
  C        20.3436223927       14.8256436837       13.5727086272
  S        14.0459396941        5.6016984048       14.5575775999
  N        13.5422297785        6.0304230352       16.0534941203
  C        13.3398005671        8.0391569217       17.4558704068
  H        12.8868654238       10.1590923363       18.1425208118
  C        19.6365129564       15.2828981779       -3.8328587252
  N        19.4708823223       16.6427595684       -3.9125398060
  O        18.8803722635       18.3855908347       -2.4444932937
  H         8.5229227532       15.4921813745       10.1836823674
  H         9.2840994327       15.4446133001        8.6527014743
  C         7.7046227899       14.0643041940        8.8171920044
  H        21.1355793934       14.4637185838       12.9947477285
  H        19.9214567126       15.6506210155       12.9529866808
  C        20.6487978100       15.5227400759       14.9464397929
  C        13.1493233241        7.2932606303       18.6451799300
  S        19.8422464990       14.4802154828       -5.3735278593
  C        19.3728695764       17.4268424759       -5.1172205066
  H         7.4622150510       14.5537808910        7.8743716437
  H         8.0184271202       13.0462168913        8.6244642811
  C         6.3398828342       14.0933179609        9.5323486665
  H        21.2835404089       14.7769608180       15.4998509707
  H        19.6935232027       15.5396777109       15.4761993026
  C        21.3788059390       16.8478416053       14.8268396585
  H        13.4739328255        6.2461157056       18.6715057026
  C        12.6168050614        7.6883432221       19.8837625451
  H        20.0918885448       16.9627658451       -5.7725296727
  H        19.8601163199       18.3472478930       -5.0111541116
  C        17.9038976049       17.4821430919       -5.7375358891
  H         5.5323696223       13.8896058090        8.8636450055
  H         6.2334921238       15.0950844640        9.8786238531
  C         6.2943267512       12.9482058150       10.5415468503
  H        20.6611351383       17.6724754674       14.6408534087
  H        21.8106277163       17.1521047505       15.7876444132
  C        22.3661067868       16.8965393226       13.7105932217
  S        12.1491635988        9.1890338080       20.4991371637
  C        12.4891698872        6.6204380774       20.8986692655
  H        17.1157601806       17.7975399459       -5.0721776981
  H        17.6864349892       16.4773022209       -6.0908597380
  H        17.8748948533       18.1870227184       -6.5346910647
  H         5.2616382774       12.4572240912       10.6443202400
  H         6.8981505293       12.1164013252       10.2641601427
  H         6.5150833664       13.2210019521       11.5476778379
  H        21.8604041460       17.2261897034       12.8162943026
  H        23.1284230288       17.6243377598       13.9672484814
  H        22.8812973655       15.9504611132       13.4912102587
  C        11.7916167923        8.3968334534       22.0996605535
  N        11.9943105183        7.0849808584       22.0844237917
  O        12.7850601414        5.4652060378       20.7465267751
  S        11.2140520393        9.1302712997       23.5835697047
  C        11.9549107293        6.1733909806       23.2390221500
  H        11.5150104362        5.2394830903       22.7738876331
  H        11.1451031320        6.6047960208       23.8423008282
  C        13.3127767890        5.9796342388       23.9227345147
  H        13.9381126064        5.3679333530       23.2848142121
  H        13.4383802807        5.5360323324       24.9194863409
  H        13.9639601800        6.9312855020       23.7980621216
