352
 i =     6800, time =     6800.000, E =        27.0495169599
  H        11.7640905957        7.3182870610       32.4921417235
  C        11.6834522443        6.3060293719       32.2636112636
  H        12.5872273678        5.8432843240       31.9273731157
  C        10.6992763697        6.2640949782       31.1373813762
  C        11.0938672947        5.7899767208       33.6072162492
  C        11.2859899953        5.9680347242       29.7555968212
  H         9.9548989958        5.5119288199       31.3939161135
  H        10.1714543421        7.1765454040       31.1362690666
  H         9.9876051765        5.7484951321       33.5576622608
  H        11.3912366282        4.8066428991       34.0143814522
  H        11.3153791222        6.4905412467       34.3977697991
  C        10.1426209847        5.6664462995       28.7843365455
  H        12.0364798175        5.1617634548       29.7994018276
  H        11.8496726258        6.8060877287       29.3496586856
  C        10.5990386809        5.6502935946       27.3128721574
  H         9.7967711682        4.6854011915       29.1536612885
  H         9.2341167998        6.3310251353       28.8909455671
  C         9.5687210068        5.1672810753       26.2215900212
  H        11.4674417487        5.0069658348       27.1478220378
  H        11.0031308965        6.6673567715       27.0816211468
  C         8.2220952787        6.0670223908       26.1481949364
  H         9.9917537313        5.1901665251       25.2718356947
  H         9.4061957880        4.1206389406       26.3950816156
  C         7.0552911209        5.2149146317       25.3429373692
  H         7.6922148247        6.3195753135       27.0658059553
  H         8.4886213397        7.0271111242       25.6172841674
  C         6.6861383333        3.9352780457       26.0369373530
  C         7.6159319777        4.4819126866       24.1121197590
  C         5.7527191926        6.0727007837       25.1766128236
  C         7.0497848760        2.8395584333       25.2714632999
  C         6.1461821290        3.6020772392       27.2839694858
  C         7.5299424633        3.2091434314       24.0360571521
  C         8.2324870219        5.1607567636       23.0580679333
  H         6.0088643201        6.8936188458       24.5052023353
  H         5.3165330247        6.5125083220       26.0812216813
  C         4.6086061421        5.3793718342       24.5199584433
  S         6.6335776321        1.3868089325       26.1203472788
  C         6.1195434496        2.2688011834       27.4805221243
  H         5.9359878937        4.4999717217       27.9406329363
  C         7.9047849336        2.5600772276       22.9251613982
  H         8.2540743336        6.1991530140       23.1872526271
  C         8.6505710102        4.5192582843       21.9381377899
  H         4.8806781148        5.1860313211       23.4979726374
  H         4.3277687938        4.4693547412       25.0478201374
  C         3.3713861502        6.3457500810       24.4334335402
  C         5.7645233679        1.5129344564       28.7563744691
  C         8.5174524603        3.1734442623       21.7899075793
  H         7.7769501733        1.4717983574       23.0282303712
  C         9.0695382581        4.9045314043       20.7055665336
  H         2.5964589456        5.9655016344       23.8103224818
  H         3.7391693102        7.1923752612       24.0279793830
  C         2.5963580009        6.5642289561       25.7406965894
  C         5.9643532212        0.1632943168       29.1089384194
  C         5.3702545945        2.4096105916       29.8732205100
  C         8.9962924548        2.4484395036       20.5720929131
  C         9.2800823624        3.8098723772       19.8902975783
  S         9.4350914602        6.3862878396       19.9104361737
  H         1.6857545644        7.2018290551       25.5637324404
  H         3.1461273495        6.9870283388       26.5611686937
  C         2.0532644647        5.2796536310       26.3717932895
  N         6.3128221301       -0.8723863887       28.2486844255
  C         5.6835929057       -0.3245776398       30.4027705517
  C         5.1120948393        1.9287784932       31.1207724178
  H         5.2887089012        3.4485082669       29.7691108490
  C         7.8796445087        1.6935913477       19.8189422668
  C        10.3140927902        1.5905444706       20.8905878572
  C         9.8094931086        4.1804416996       18.5875475788
  C         9.9149279651        5.5374203993       18.4631248498
  H         1.2651901792        5.0105514308       25.7164069156
  H         2.7988589596        4.5165738959       26.4099136611
  C         1.4127189119        5.4767587973       27.7427598976
  S         6.4092199932       -2.2648618163       29.0252479314
  N         5.8560266584       -1.7211919073       30.4616294101
  C         5.2646286681        0.4990174068       31.4401002487
  H         4.8627550720        2.6075146758       32.0023056692
  H         7.5263335687        0.8722234130       20.4386292980
  H         8.4739805933        1.1382375495       19.0438134569
  C         6.7706260595        2.5041942267       19.2243030087
  H        10.7454660685        1.3120406708       19.9091895398
  H         9.8629533222        0.7447348276       21.3395277953
  C        11.4229607184        2.3572168611       21.7568332833
  H        10.0560389843        3.3673315433       17.8654728697
  C        10.3086672020        6.2103138558       17.2287284295
  H         0.8202749702        4.5665312861       27.9508086688
  H         0.7113182839        6.3260245393       27.6608912313
  C         2.3814580357        5.6780097156       28.9320746178
  C         4.9700248464       -0.1561570965       32.6656767488
  H         7.2426681830        3.1552674484       18.4956823039
  H         6.2904095580        3.2051213726       20.0251554051
  C         5.7261434063        1.6081797102       18.4392928691
  H        11.0498927500        2.8719720124       22.6579553221
  H        11.5661997729        3.2203475251       21.1236119028
  C        12.8219989405        1.7603423645       22.1002365122
  C        10.3589268310        7.6083553061       17.0271788569
  C        10.3339753532        5.4868382134       15.9349763466
  H         3.1736274507        5.0119466955       28.8627634124
  H         2.8059432176        6.5478178525       28.6827880499
  C         1.8219873772        5.7893300106       30.3547730076
  H         5.2480159740       -1.1585887778       32.6565372662
  C         4.7111564868        0.2728395810       33.9464230531
  H         5.4437559209        0.7762014586       19.0511514290
  H         6.2256975315        1.0827847466       17.6523018918
  C         4.3574641577        2.2970115383       18.0575561465
  H        13.1103979923        1.9883686662       23.0930297924
  H        12.8222671486        0.6889870642       22.1636273958
  C        13.7890603696        2.3985363258       21.0380356153
  N        10.0747422580        8.5807771305       18.0183333389
  C        10.6072863792        8.1506447131       15.7938876218
  C        10.5029267575        6.0544538250       14.6862029180
  H        10.2802464822        4.4481506425       15.9944034246
  H         1.1945160808        4.8364170306       30.6609104292
  H         2.4479861559        5.9461846094       31.1973704753
  H         1.0585582995        6.5555665175       30.3121947816
  S         4.5240141906        1.8625939135       34.4648727859
  C         4.6119372807       -0.7150024906       35.0411540453
  H         4.4903761495        3.2025486964       18.6540496915
  H         4.4146748583        2.5388274594       17.0033246564
  C         3.0254072131        1.6332090944       18.5412640799
  H        13.5281837864        3.4508598213       20.9893560341
  H        13.6679147643        2.0677036741       20.0551929453
  C        15.1747304553        2.2102734824       21.5488890682
  S        10.3154329013       10.0157682549       17.3697255867
  N        10.5719372157        9.5668558917       15.8777314103
  C        10.7073086015        7.5004333844       14.6020357898
  H        10.7947632679        5.3960351772       13.8961938993
  C         4.2024244277        1.2482861739       36.0577970945
  N         4.3607667799       -0.0595232153       36.1909356189
  O         4.8348531517       -1.9269963169       34.9068584956
  H         2.2428668538        2.3824580133       18.6417137936
  H         3.2107565744        1.1578739827       19.5140440907
  C         2.4552268164        0.5385384845       17.5867025426
  H        15.1919876568        1.1909406793       21.9180614819
  H        15.7581618478        2.2152397008       20.7245841586
  C        15.6309692144        3.1244345096       22.6574438654
  C        11.0253751616        8.1793225794       13.3836096814
  S         3.7288334448        2.2607881221       37.3668876000
  C         4.2080357161       -0.6225729226       37.5040171384
  H         1.3907624833        0.3053799471       17.9347428724
  H         2.4220137808        0.9339939334       16.5564252636
  C         3.3276028532       -0.6374176452       17.4206461076
  H        14.7961845927        3.5162072980       23.2021094511
  H        16.1383148342        3.8636741361       22.1351057298
  C        16.7007340129        2.3987864226       23.5266283417
  H        10.9491633488        9.1760349816       13.4697024560
  C        11.6427034317        7.8892549991       12.2279885782
  H         3.4663485795       -0.1301018241       38.1603519279
  H         3.7064041217       -1.5482049645       37.4877829056
  C         5.5686740869       -0.6448286571       38.1256588268
  H         3.7796151389       -0.9886831104       18.3402438083
  H         4.1717720694       -0.3626298333       16.7306273737
  C         2.5901139870       -1.7855574714       16.7966690748
  H        16.9995208321        3.0582878129       24.4176623414
  H        16.2733527319        1.5561447312       24.0687531072
  C        17.9792658364        2.0603157396       22.6672769878
  S        12.2699411324        6.3210976505       11.7888811552
  C        11.7102088516        8.9342942564       11.2240650764
  H         6.2979792862       -0.0718764310       37.6221618813
  H         5.3965513867       -0.2243678894       39.1022591389
  H         5.8933512807       -1.6938418617       38.2410125928
  H         1.8844689640       -2.2010334366       17.5014345343
  H         3.3315665891       -2.5621589736       16.5093738592
  H         1.9947661637       -1.5284545719       15.9699806202
  H        18.9255940853        1.9090791942       23.2430404400
  H        18.1379083896        2.9867597367       21.9980568037
  H        17.8489432733        1.1800887451       21.9038977848
  C        12.6717481222        7.0556812989       10.2978467746
  N        12.4285560042        8.4612406239       10.1563225378
  O        11.2108816322       10.0120610803       11.2616115108
  S        13.2951887717        6.2420628786        8.9554916847
  C        12.5249065882        9.2338783242        8.9646598106
  H        12.7559061757       10.3242830378        9.2527394959
  H        13.4859443017        8.9369525332        8.4792569318
  C        11.2790549397        9.2262767737        8.0910807415
  H        10.6020613226        9.9906158784        8.3447953994
  H        11.5238892252        9.1579438507        7.0299840996
  H        10.5679313235        8.3166287413        8.2836172537
  H        21.0919146686       11.4984382973        2.9652549655
  C        21.4599762832       10.5249110782        3.3276738649
  H        20.7252421058        9.7850615663        3.2787003924
  C        21.9834609065       10.6921655506        4.7686841243
  C        22.4944942853       10.0362335485        2.3113927352
  C        20.9196333638       10.5905167330        5.8307322390
  H        22.8396996193        9.9335370587        4.8984933969
  H        22.3842853852       11.7257656488        4.7438177824
  H        22.0023088087        9.7771997859        1.3512867288
  H        23.0183482696        9.1092086362        2.6726269191
  H        23.2439104861       10.7676986618        2.0977635523
  C        21.0587640971        9.3109155920        6.6405997770
  H        20.8910803855       11.4755557854        6.4715493959
  H        19.9989607336       10.7026492785        5.2701641152
  C        20.3372108117        9.1935457931        8.0010866981
  H        22.0651907844        9.0356304058        6.8262826413
  H        20.5958495824        8.5962904791        5.9726800194
  C        19.0484544689       10.1015067517        8.0217395654
  H        21.0631977957        9.5580524702        8.6455687556
  H        20.1304945412        8.1231544535        8.3386642772
  C        17.8664059603        9.4550008065        7.3728318938
  H        18.8362593098       10.2691525184        9.0844028240
  H        19.1382772299       11.0804395595        7.6829855387
  C        16.6848877845       10.5722732231        7.1026000552
  H        17.6140371296        8.7641165300        8.2310301090
  H        18.0691479193        8.8700236627        6.3796014320
  C        17.0932690174       11.8647807342        6.4294445861
  C        16.2732123497       11.2787381894        8.3322723697
  C        15.5478405160        9.8771964614        6.4050155790
  C        16.8296669642       12.9950294032        7.2486521533
  C        17.6437313495       12.2010507619        5.2196755353
  C        16.3558317519       12.6376902698        8.4609166584
  C        15.7675576091       10.6105801263        9.3977548255
  H        16.0622171255        9.3255019589        5.5229711970
  H        15.2191544570        9.0971392648        7.0969460106
  C        14.3980006142       10.7741000544        5.9458084488
  S        17.3204414073       14.4781844638        6.4758483861
  C        17.7827646313       13.5676917773        5.1047323188
  H        17.9250542823       11.3634876191        4.4945113894
  C        16.0139873445       13.2022937330        9.6464628662
  H        15.6242414871        9.5282348430        9.3565011530
  C        15.4806130512       11.1409590557       10.6106312671
  H        14.6051998785       11.8197975460        5.7909700165
  H        13.7065996612       10.8699597574        6.7659683201
  C        13.5733498884       10.1133338791        4.8148204457
  C        18.1663455043       14.2368825074        3.8396477104
  C        15.5643258557       12.4849846318       10.7407085518
  H        16.0527030098       14.2781066377        9.5906776963
  C        15.0466436797       10.6858090086       11.8960932249
  H        12.6008979805       10.6446268899        4.8511628548
  H        13.4117752452        9.0840692237        5.0218340748
  C        14.1664185985       10.2444669886        3.4373490266
  C        18.1852122470       15.6606175339        3.5691516254
  C        18.6792232853       13.3456544693        2.7991369948
  C        15.0839284866       13.1812901210       12.0270238181
  C        14.8352860352       11.8068335530       12.6891399071
  S        14.8517597653        9.1442750660       12.6529071452
  H        14.9438510943        9.4920398018        3.2667866457
  H        14.7118276494       11.1819969138        3.2930404908
  C        13.0349797133       10.1946571617        2.5362723654
  N        17.7720371765       16.6246397212        4.5321317563
  C        18.5592844969       16.1824865970        2.3469427036
  C        18.9964263844       13.9091383632        1.5369538068
  H        18.8211091123       12.2905150224        2.9393943728
  C        13.8410173568       14.0263959560       11.7663254148
  C        16.1820105726       14.0113720978       12.7547558065
  C        14.4814730647       11.3797844914       13.9683220178
  C        14.4023660939       10.0422528872       14.1440520026
  H        12.3314414220        9.3447834827        2.7123536173
  H        12.3718308137       11.0615854754        2.7485108408
  C        13.5212478617       10.4530660823        1.1170156929
  S        17.8909965300       18.0928624744        3.7658895340
  N        18.3731638259       17.5643039359        2.2731659362
  C        18.8921130974       15.3568192308        1.2430945620
  H        19.2321327998       13.2677364399        0.7540430035
  H        14.0558686961       14.9147681797       11.1164043664
  H        13.5915758916       14.3996698505       12.7861200415
  C        12.6142040914       13.2946681641       11.1298504896
  H        16.3930134730       14.9699122833       12.2640676873
  H        15.7210132746       14.1695809975       13.7167283668
  C        17.4368991682       13.2493433592       13.0268516874
  H        14.2959324155       12.1875118578       14.6736374144
  C        14.1231828042        9.3790883959       15.4781502086
  H        14.4001501302        9.8693851260        0.9715795576
  H        13.8352942526       11.5182990873        1.0526441564
  C        12.5165067633        9.9738842449        0.0868082234
  C        18.9898378183       16.0511819553       -0.0042715143
  H        12.8730561138       12.9643568554       10.0876108028
  H        12.4187951433       12.4164683475       11.7846296568
  C        11.5039011515       14.2526548034       11.2008795203
  H        17.6964499798       12.9180320913       11.9868409390
  H        17.1377978600       12.3932260534       13.5778056111
  C        18.5358949932       14.0948220501       13.6839340707
  C        14.0255802555        7.9542425649       15.6771503647
  C        13.8000245582       10.1827867578       16.6840828362
  H        12.4089526386        8.9089759078        0.1380305370
  H        11.5792859114       10.4726443051        0.2826983468
  C        12.9848954911       10.1792363717       -1.3506129385
  H        19.0941675793       17.0614238341        0.0855020247
  C        19.2655252225       15.6730833525       -1.2457946602
  H        11.5270320321       15.2227165663       10.7395770290
  H        11.4191153340       14.5036736529       12.2604372431
  C        10.1502864702       13.6134648764       10.8252214816
  H        18.8504969941       14.7981959858       12.8968406525
  H        18.1447005928       14.8254322240       14.4727001030
  C        19.7172106183       13.2001824731       14.1599810862
  N        14.4453702713        7.0207533635       14.7636891204
  C        13.7273081666        7.4192203942       16.9098412518
  C        13.5431678592        9.6464375705       17.9319983634
  H        13.8190237902       11.3160764770       16.5927143092
  H        13.1085372070       11.2050738978       -1.6506868480
  H        12.3383387393        9.5346750230       -1.9532264441
  H        13.8846652311        9.5950765499       -1.5212344664
  S        19.5003787092       14.0456720745       -1.7522484994
  C        19.2308004120       16.7296873217       -2.3224924510
  H         9.9456804940       12.6755812423       11.3551135621
  H         9.3959430071       14.3387272487       11.2409767507
  C         9.7969992031       13.4460387962        9.3104760579
  H        19.7430217196       12.4390137117       13.3927095918
  H        19.4649665396       12.7166919049       15.0562758864
  C        21.0921899733       13.9729922793       14.0849306464
  S        14.2022047020        5.5304769599       15.4131782893
  N        13.7246046056        5.9963267243       16.9174881389
  C        13.4250601592        8.1879656132       18.0554753132
  H        13.5046112618       10.3483141061       18.7341204267
  C        19.6730319927       14.7482635246       -3.3710683726
  N        19.5237249391       16.0955582098       -3.4701656298
  O        19.0280998498       17.8989667021       -2.0897069536
  H         9.7349665477       14.3478739116        8.7412816830
  H        10.5287055967       12.8289853003        8.7472608538
  C         8.4834000615       12.7492633975        9.1981115038
  H        21.9481454874       13.3268593144       14.1931245297
  H        21.1496358099       14.4270023428       13.0829091644
  C        21.1994401718       15.1232418809       15.0157210507
  C        13.2607676180        7.4930123832       19.3046665930
  S        19.9190031664       13.8010900388       -4.7830448716
  C        19.5107149282       16.8562776590       -4.7405126480
  H         8.5647588199       12.1606304938        8.3024788080
  H         8.3121683506       12.0680649369       10.0688835739
  C         7.2479039284       13.6081457090        9.1127337223
  H        21.6824124220       14.7736367795       15.9056756145
  H        20.2173409090       15.5784618345       15.3172963417
  C        22.1746677723       16.2382600537       14.5541316038
  H        13.1648191534        6.4416609438       19.2002127061
  C        12.7043270901        7.9208682156       20.4984396263
  H        20.2975669945       16.6055307263       -5.3189182982
  H        19.7111025674       17.8922150722       -4.5801457888
  C        18.1973209772       16.6810823277       -5.4151522318
  H         6.6610928355       13.3270194154        8.2140445050
  H         7.5253411167       14.6326633054        8.9685816672
  C         6.3889275136       13.4538359875       10.4030915909
  H        22.2820788376       16.9454285453       15.3977665728
  H        23.1362407541       15.7732286101       14.3515988174
  C        21.7270640313       17.0456420939       13.4250897307
  S        12.1902242344        9.5083890674       20.8233665824
  C        12.5224026407        6.9141023303       21.5575471438
  H        17.3845816754       16.9957030189       -4.7358142490
  H        17.8839723089       15.6820251043       -5.8108909664
  H        18.2787061024       17.2817376615       -6.3412969223
  H         6.7716816484       12.7327244305       11.1288347853
  H         6.1161738233       14.3291357367       10.9138357228
  H         5.4122798646       13.0561610863       10.0646199884
  H        22.2111062937       18.0647952480       13.5895531543
  H        22.0422194654       16.6171946236       12.4766435944
  H        20.6546114607       17.2200237068       13.3086418526
  C        11.5903765719        8.8474411943       22.2907682406
  N        11.7391305491        7.5262658182       22.4833113852
  O        12.9001926927        5.7236739994       21.5682108877
  S        10.8075138509        9.7375074195       23.6100754287
  C        11.4515776706        6.9071432384       23.7998706184
  H        11.3680379109        5.8344459662       23.7099882524
  H        10.4580784479        7.2985237431       23.9690392456
  C        12.4858803387        7.2113780208       24.8815342779
  H        12.7834113426        6.3844022266       25.5079486817
  H        12.2500229042        8.0227650526       25.5453286068
  H        13.4018301160        7.5397785330       24.3110534275
