352
 i =    74500, time =    74500.000, E =        25.3227187216
  H        11.4276410135        7.1749495830       32.2600810332
  C        11.0256101374        6.2176671479       32.0821545916
  H        11.8600410326        5.5171632246       32.2857013413
  C        10.4596205830        5.9300804686       30.6594579863
  C        10.0496075831        6.0465290122       33.2495254730
  C        11.5264128309        6.1418137213       29.5575422441
  H        10.0212578450        4.8952579592       30.6212744929
  H         9.7120487473        6.6396199290       30.4369263032
  H         9.6431053433        5.0609715777       33.3579581432
  H        10.4075480698        6.2826900083       34.2339359837
  H         9.2564244177        6.7628362016       33.1190425160
  C        10.9262863519        5.5176406760       28.3130203419
  H        12.4042229189        5.5589025938       29.8507962653
  H        11.6406578789        7.2164294499       29.4187992809
  C         9.9540934073        6.3197531168       27.5354409182
  H        11.7885157872        5.3919212769       27.6777867718
  H        10.5026981149        4.5620996856       28.5558434330
  C         9.3517760964        5.5490525272       26.3315976010
  H        10.4458385029        7.1467091763       27.0077761587
  H         9.1538639141        6.7414839851       28.1768680966
  C         8.0222361926        6.0961883964       25.6831167838
  H        10.0908159998        5.4794482604       25.5288799226
  H         9.1846693780        4.4900061974       26.6599446396
  C         7.1551644405        5.1101359774       24.9627048124
  H         7.4789681416        6.7249592453       26.4839029739
  H         8.3154218737        6.7957713437       24.8913261220
  C         6.9505366140        3.7606280792       25.7135495114
  C         7.7698863606        4.3376683382       23.7954716009
  C         5.7926755273        5.7734903172       24.5806227116
  C         7.2007977629        2.6720690619       24.9496935776
  C         6.4353404161        3.4129136840       26.9104326412
  C         7.7093444021        3.0252323452       23.7752373601
  C         8.0847882164        4.9771131213       22.6165349004
  H         5.4241008468        5.3750426799       23.6941933915
  H         6.0073112624        6.8186978024       24.3298543404
  C         4.6676348458        5.6731878388       25.6415377487
  S         6.7884896169        1.2306537564       25.7091602076
  C         6.2717290001        2.0467736519       27.0975002768
  H         6.2493872735        4.1204308874       27.6369403658
  C         8.0674114332        2.3678209293       22.5867152266
  H         7.8426545737        6.0232432365       22.5434424975
  C         8.4442533802        4.3826776678       21.4795709311
  H         4.5004641967        4.6373829725       25.8658209285
  H         4.9687847832        6.0895920193       26.6141663626
  C         3.4129669410        6.3131780559       25.1380190419
  C         5.8770634040        1.2796334949       28.3422450980
  C         8.3765960165        3.0468345812       21.4085924061
  H         8.0370497745        1.3436527316       22.3280439409
  C         8.8299027753        4.7071426047       20.2365065540
  H         2.9082185000        5.7291257761       24.3868249522
  H         3.6314455178        7.2205350471       24.6750078899
  C         2.4522996279        6.6877846576       26.2889692801
  C         6.0082838300       -0.1289680121       28.5902544111
  C         5.2950181767        2.0745803301       29.4371213216
  C         8.6597862745        2.2637598925       20.1962236459
  C         8.9552828289        3.6132555213       19.4289765407
  S         9.1937356745        6.1588264463       19.4656608389
  H         1.6028687646        7.2079649329       25.8713424826
  H         2.8398834057        7.3746059184       27.0382361634
  C         2.0390519003        5.4565212454       27.0892252887
  N         6.3813834125       -1.0810735886       27.6490071450
  C         5.7516213915       -0.6734553267       29.8205501164
  C         5.1098513401        1.4266929986       30.6838493455
  H         5.1353229892        3.1542112819       29.3643233950
  C         7.3828911588        1.5018113088       19.6092352273
  C         9.9674644049        1.4217311654       20.2156117289
  C         9.3136719966        4.0537895464       18.1293299988
  C         9.4029683200        5.4015269325       18.0168716654
  H         1.7460859047        4.7541670596       26.3216647492
  H         2.9796904662        5.1590830164       27.5272798465
  C         0.8686889628        5.6632169540       28.1237760580
  S         6.6915420181       -2.4885275719       28.3452361299
  N         6.1862003633       -2.0099557447       29.8568663594
  C         5.2756196001        0.0106910988       30.9416806083
  H         4.7645390034        2.0456009934       31.4324105906
  H         6.9151903516        1.0500274562       20.3755545825
  H         7.7091357467        0.6850442186       18.9441706435
  C         6.4598086101        2.4574509902       18.8875681427
  H        10.1597359720        1.1692393115       19.2456911774
  H         9.7642443370        0.4846111078       20.7062186146
  C        11.0653408554        2.1309127025       20.9407894079
  H         9.4515676764        3.2219979603       17.4032954201
  C         9.7769107510        6.2220834224       16.7901631343
  H        -0.0356941314        5.7292186209       27.5430317943
  H         1.0932195278        6.5641833254       28.6491139168
  C         0.6855794495        4.5367795777       29.0920131837
  C         5.0585574629       -0.6655318059       32.1776654303
  H         7.0070691071        2.8153106300       18.0641911445
  H         6.2768722549        3.3607187917       19.4171295190
  C         5.1339516086        1.7573392965       18.5674090058
  H        10.8736585888        2.2881768984       21.9985858343
  H        11.1532457118        3.1307977323       20.5976084847
  C        12.5074009242        1.5249838670       20.8396212738
  C         9.9889596415        7.6405618492       16.6809159652
  C         9.9459431910        5.4781721456       15.5567108133
  H        -0.3654209526        4.2397860604       28.9772741543
  H         1.2761192985        3.7072711950       28.9294495368
  C         1.1668377282        5.1045485215       30.5028899631
  H         5.3244810600       -1.7310142459       32.1821965418
  C         4.6457698192       -0.2039950696       33.4246943200
  H         4.5611748775        2.5858181931       18.1274487575
  H         4.5469117747        1.4902664378       19.4351212780
  C         5.2188927832        0.6030631221       17.6332459580
  H        12.4865522120        0.5774654423       21.3065591880
  H        12.8709481668        1.2830072819       19.8414918860
  C        13.6352606539        2.3575617222       21.5159113954
  N         9.7932632719        8.5783763924       17.7007578798
  C        10.2300541035        8.3578701978       15.4941743405
  C        10.3051236039        6.1719978748       14.3510397042
  H         9.7392166159        4.4420336079       15.4965507836
  H         0.7997476118        6.0834570568       30.7297974124
  H         1.0441539939        4.4167189888       31.2723946289
  H         2.1874268838        5.0878443187       30.4178248100
  S         4.5040174663        1.4451181073       33.9359109324
  C         4.5176841003       -1.1966092904       34.4882299936
  H         5.6582018319        0.8494923177       16.6985950344
  H         5.8351987039       -0.1669833576       18.0261593817
  C         3.7823263806        0.1329625178       17.4446650189
  H        13.2092321430        3.0079558046       22.3238031394
  H        13.9511183761        3.0549214674       20.7904283397
  C        14.8239223209        1.6531461252       22.0758888064
  S         9.9398015427       10.1350992704       17.0989973093
  N        10.3354809172        9.7530269995       15.6501643767
  C        10.6097324049        7.6216041891       14.3333871437
  H        10.3339043703        5.5518764387       13.4934105395
  C         4.4031568986        0.8588136156       35.5704911883
  N         4.2757343330       -0.5387533544       35.6712051775
  O         4.6338668261       -2.4566824989       34.3192929168
  H         3.5703386834       -0.1234868683       16.4115372776
  H         3.0673976986        0.8128102156       17.8093396856
  C         3.5622107841       -1.1435901887       18.2594240101
  H        14.4871221545        0.8214177149       22.6839526227
  H        15.5013059047        1.3724642587       21.2684908458
  C        15.4902021245        2.6453582529       23.0630733905
  C        11.1053378543        8.3191292678       13.1969668702
  S         3.9637185072        1.7671681636       36.9323838537
  C         4.1755272827       -1.3279590971       36.9549806595
  H         4.3363364264       -1.8679644441       17.9328590499
  H         4.0123388653       -0.9059221758       19.2560665949
  C         2.1489306215       -1.6718326108       18.2020196110
  H        14.8516966349        2.6854277215       23.9197631595
  H        15.6276378710        3.6804367940       22.6861383366
  C        16.9205718215        2.0372051198       23.3903433210
  H        10.7934933859        9.3682487421       13.2279164631
  C        11.6710979882        7.8363312737       12.0078656592
  H         3.5479746242       -0.7804342899       37.5651131178
  H         3.6969431073       -2.2746330387       36.7731049404
  C         5.5423288477       -1.3620878700       37.6416668134
  H         1.4313677399       -0.9009459217       18.2777562418
  H         1.9252767374       -2.2669418421       19.1222849823
  C         1.9996382059       -2.4504506633       16.8380270873
  H        17.4557815196        2.5449526903       24.1925276089
  H        16.7469991573        0.9875772052       23.6549192401
  C        17.8971433875        1.9727536099       22.2434907404
  S        12.0437801059        6.2132034005       11.5674667305
  C        11.7683061060        8.8036054611       10.8486998618
  H         6.0036923701       -0.3903059228       37.3778215712
  H         5.4388757886       -1.4404786730       38.6795144987
  H         6.1316680643       -2.1632143731       37.1829267455
  H         1.9641419255       -1.7844743677       15.9678183818
  H         1.1121067273       -3.0720633206       16.9691478559
  H         2.8252587245       -3.0794289876       16.6365842950
  H        18.9557654643        1.9141264126       22.5663433329
  H        17.7650202931        2.9038025814       21.5692551025
  H        17.6580015905        1.1193214632       21.5793626258
  C        12.4661630214        6.8390543806        9.9417022647
  N        12.2215469576        8.1681391306        9.7534712218
  O        11.4794531981       10.0194174069       10.8961685569
  S        12.7446326767        5.8506900009        8.4933728886
  C        12.4103280268        8.8110895427        8.4683293155
  H        12.8855434328        9.7761527056        8.7051681714
  H        13.0625698153        8.3066145310        7.8359861702
  C        11.0077977222        9.1388787957        7.8984895033
  H        10.3944372462        9.6404086456        8.6883335945
  H        11.1175688742        9.8026046215        7.0520491462
  H        10.3892020764        8.2573389968        7.5796285152
  H        20.4527389570       11.4127822774        3.0710501276
  C        20.9347649481       10.4548648511        2.9465993939
  H        20.2687120171        9.6714711330        3.2545031386
  C        22.2266908660       10.3701597029        3.8229326444
  C        21.3154602865       10.2770137241        1.5343134160
  C        21.9344700663       10.3514688855        5.3165402186
  H        22.9278887246        9.6018007459        3.5634607880
  H        22.5681296906       11.4170202163        3.6864239630
  H        21.8262068523        9.3166720221        1.3846076011
  H        21.9326652004       11.0392893860        1.2063876526
  H        20.4464613420       10.2231394691        0.8865075996
  C        21.4861326455        8.9964873243        5.8123528070
  H        22.8210889562       10.6331274485        5.8128107268
  H        21.2257869901       11.1643594803        5.6649629345
  C        20.4036204170        8.9719194053        6.9007999506
  H        22.3444013398        8.3957874208        6.1544057686
  H        20.9908681208        8.5009572393        5.0012376230
  C        19.0731982915        9.4002777379        6.3452683636
  H        20.6742293443        9.5717129529        7.7203094687
  H        20.3899738951        8.0079148676        7.2777407189
  C        18.0704361908        9.7762457476        7.4447986916
  H        19.2064304576       10.3202990281        5.7492748478
  H        18.6469626637        8.6463260216        5.6133469997
  C        16.9060409871       10.7186858783        6.9393853498
  H        18.3933194128       10.4043884630        8.3079478696
  H        17.5596800793        8.9016857170        7.7927508593
  C        17.2267003047       12.0591630765        6.2740143022
  C        16.2649770272       11.3436083828        8.1077494049
  C        15.7865877588       10.0907971028        6.0150383969
  C        16.7767187545       13.1309596172        7.0160374700
  C        17.9143482796       12.4458546879        5.1018018536
  C        16.2469108916       12.6871037833        8.2280947670
  C        15.8355379619       10.6148027483        9.2171652527
  H        16.1375886582        9.7155908136        5.0623665838
  H        15.4307022267        9.2771375911        6.4787843537
  C        14.5162129598       10.9110615299        5.7274105696
  S        17.1083859758       14.6693108140        6.2846770984
  C        17.7316901604       13.8119682970        4.8447290995
  H        18.3446712150       11.6090590102        4.5325372966
  C        15.8984448902       13.2925476384        9.4342357577
  H        15.8642329998        9.5899661356        9.1467519555
  C        15.5909234799       11.1886182096       10.4225762331
  H        14.8638643273       11.8685851477        5.3257220962
  H        14.1696609746       11.1022353474        6.7490583763
  C        13.3963976757       10.2172696683        4.8824676865
  C        18.0584436329       14.5386539805        3.5406651897
  C        15.6718145460       12.5258850452       10.6117904332
  H        15.9588658477       14.3740945655        9.6024331399
  C        15.0982393117       10.8356271889       11.6850497430
  H        12.5523422444       10.8764226305        4.6759168035
  H        12.9784035915        9.3679694428        5.3811500098
  C        13.8707586122        9.8255003235        3.5043948736
  C        17.9505188438       15.9231763309        3.1836355725
  C        18.4980860567       13.6177406501        2.4200802686
  C        15.3193784081       13.2050653104       11.8501634554
  C        15.0577213657       11.8869487787       12.6216985333
  S        14.7298856219        9.3587133443       12.4686549097
  H        14.1312709094        8.7741645491        3.5564028983
  H        14.7945807522       10.3427084744        3.2234451742
  C        12.6396042403        9.9175422059        2.4302633073
  N        17.4541180678       16.8903625343        4.0009496191
  C        18.3082634012       16.3681938269        1.9314573833
  C        18.8289578376       14.0753765932        1.1969491962
  H        18.5969828460       12.5503664884        2.5426399879
  C        14.0770561644       14.0568232279       11.6380309116
  C        16.4956507063       13.9420701707       12.5522461686
  C        14.6775906210       11.5027550193       13.8942502798
  C        14.5187192348       10.1436061465       13.9919201792
  H        11.7421784186        9.4625692115        2.8672502519
  H        12.3563882395       10.9185519973        2.1038506623
  C        13.1261390379        9.0280243304        1.2937997159
  S        17.3716504927       18.3540751366        3.1951615601
  N        18.0779246070       17.7160504965        1.8050757887
  C        18.7388612662       15.5210912363        0.9027136002
  H        19.0388484322       13.4080041920        0.4489645830
  H        14.1931151908       14.8321347386       10.9500818702
  H        13.8688307963       14.5329132343       12.6110647329
  C        12.8151209666       13.2684088900       11.2884105593
  H        16.8013492976       14.7311379556       11.7903936846
  H        15.9795844047       14.5035703994       13.4049545189
  C        17.7475442470       13.1266760953       12.9279030863
  H        14.5165450139       12.2412153047       14.7013793080
  C        14.0903078022        9.4645292701       15.2624327121
  H        12.6528585275        7.9829123757        1.3905759882
  H        14.1803190941        8.8106283162        1.4220577362
  C        12.9924721098        9.7113573641       -0.0563458915
  C        19.1031255845       16.1788340591       -0.3125264174
  H        13.0766127859       12.5695111205       10.4857208482
  H        12.5897902694       12.6808637682       12.1503073470
  C        11.5753175145       14.1371505146       10.9112222613
  H        18.0938789676       12.4922119790       12.1226592895
  H        17.3870556573       12.4590797381       13.7775515104
  C        18.7399597665       14.1498181627       13.5577277188
  C        13.8251348257        8.0605512075       15.3779423543
  C        13.7633623442       10.2471128849       16.4018912846
  H        13.2486253139       10.8596938155        0.0285587493
  H        13.6357545088        9.3880343863       -0.8106403580
  C        11.5537260374        9.7927980794       -0.5914833850
  H        18.8968602102       17.1798356138       -0.3961585483
  C        19.3534549644       15.6687660181       -1.5461799442
  H        11.8485388410       14.7828086824       10.0588952225
  H        11.3760907922       14.9067175958       11.6641946423
  C        10.3355647180       13.2557047079       10.7219521703
  H        18.8962116699       15.0817273236       13.0133005800
  H        18.4126882074       14.4740784160       14.5013579255
  C        20.1453946039       13.6365873794       13.6018299546
  N        14.0201518137        7.1777631554       14.3177961263
  C        13.4574122386        7.4885908757       16.5449550548
  C        13.3554502868        9.6588212238       17.6100278503
  H        13.7963328066       11.3346607627       16.2944906429
  H        11.1289632245        8.8018202926       -0.6020691302
  H        11.3588995535       10.1771344271       -1.5836410463
  H        10.9386877128       10.3302224455        0.1158335478
  S        19.7045560233       14.0245267115       -1.9640041092
  C        19.0991654386       16.5375788616       -2.7113457865
  H        10.6629340709       12.5692236107        9.9525040989
  H        10.1168919300       12.7625450429       11.7204807060
  C         9.1460512383       14.0618403887       10.2896524861
  H        20.4414243326       13.4041587957       12.5755069134
  H        20.1174726015       12.6545230524       14.0820709401
  C        21.1192439062       14.5015316313       14.4805317365
  S        13.5357311667        5.6809372924       14.8354637713
  N        13.3780534432        6.1191528300       16.4535628699
  C        13.2659921325        8.1905248033       17.6956295878
  H        13.1402497668       10.3411487666       18.3629396081
  C        19.7833556101       14.6303573291       -3.5986945883
  N        19.5266999842       15.9138852129       -3.8438683013
  O        19.0111242494       17.7744632370       -2.6734594430
  H         9.0083844942       15.0119438010       10.7929418994
  H         9.3738230660       14.3975905304        9.3264958095
  C         7.8936412314       13.1600671717       10.4422170909
  H        20.7101854063       14.7296379401       15.4763642213
  H        21.9033479725       13.6983486783       14.6699478550
  C        21.6823212448       15.8110950658       13.7961736881
  C        12.8647399756        7.4811373778       18.9079189077
  S        20.1571073443       13.6597235944       -5.0747840819
  C        19.5223642157       16.5330897733       -5.2276472815
  H         8.1714216979       12.1079840149       10.4114886887
  H         7.4752415627       13.3211540858       11.3859138213
  C         6.7384538829       13.5297845518        9.5048328547
  H        21.0297968618       16.1041619473       12.9973692184
  H        22.6662523602       15.6597744836       13.4906925411
  C        21.7712185938       16.9615386880       14.7250201058
  H        13.0007095333        6.3871129098       18.8449632690
  C        12.3456791857        7.8353233336       20.1018170353
  H        19.9962919532       15.9161131113       -5.9284324537
  H        20.0429345088       17.5217864191       -5.2862405234
  C        18.1060565004       16.7770469330       -5.6959806188
  H         6.7178425189       12.6197377916        8.8718889969
  H         6.9749821087       14.3489640449        8.8384554247
  C         5.3600315059       13.7668055193       10.1428387224
  H        21.9787435976       16.6952392893       15.7000328172
  H        22.6531590214       17.4792229022       14.4343682270
  C        20.4418438079       17.7264317598       14.6869568162
  S        12.0559288572        9.4099506497       20.7069239678
  C        11.9856564038        6.8188286576       21.1258736882
  H        18.0569074264       16.5450855862       -6.7719026225
  H        17.7426631519       17.8119768002       -5.4696802910
  H        17.4836768381       16.1093604680       -5.1595888404
  H         4.9188407229       12.8670640371       10.4630021831
  H         5.5145967633       14.6572639041       10.8528486087
  H         4.7560572311       14.2049338255        9.3813023124
  H        20.5675574896       18.6175360219       15.3310541205
  H        19.9958527782       18.0757930145       13.7646623658
  H        19.6424200982       17.1039538618       15.1391780842
  C        11.3859183835        8.7543019983       22.1612262009
  N        11.4103394007        7.4046923703       22.2105765438
  O        12.1297327205        5.5919128674       20.9776936486
  S        10.9084053766        9.8623425955       23.4671979687
  C        11.2508380732        6.6156037774       23.4254125391
  H        10.9971778307        5.5177631411       23.2931564617
  H        10.4441989525        7.0637769060       24.0240705682
  C        12.5301833638        6.6157893814       24.1860966918
  H        12.6028226906        5.7378893361       24.8467846566
  H        12.7078919786        7.4747429022       24.8397553825
  H        13.3553109430        6.6221688216       23.5254306262
