352
 i =    14700, time =    14700.000, E =        24.1852388450
  H        11.9318746080        7.1236678671       32.0909890358
  C        11.9586833920        6.0175284426       32.0365674588
  H        12.9661491309        5.5915988829       31.7236042402
  C        10.9274584236        5.5945208500       31.0234624412
  C        11.4197357775        5.5637091800       33.4299123220
  C        11.3246111335        5.8955356497       29.5433017514
  H        10.7225037245        4.5570144936       31.2029144543
  H        10.0237385337        6.1777200504       31.3099624798
  H        12.1837197056        5.2441608040       34.0920316969
  H        10.8213271746        6.3709305568       33.8211041950
  H        10.6811990692        4.7351083987       33.4250306715
  C        10.2028075371        5.3783067191       28.6331966650
  H        12.2116956133        5.2880836536       29.2973656289
  H        11.6433155027        6.9491491340       29.3092912554
  C        10.4930759676        5.4036882765       27.0794296157
  H         9.7811883817        4.3954337964       28.8804484409
  H         9.2870917613        5.9566943102       28.7035311895
  C         9.3915326093        4.7242556332       26.2792504644
  H        11.4691303805        4.9503996011       26.9765913535
  H        10.6927770147        6.3967957651       26.6883883795
  C         8.1047610772        5.5689432679       26.2666606080
  H         9.8189962542        4.5579341362       25.2600496949
  H         9.1022727883        3.8196207036       26.8231490333
  C         6.9219756502        4.8195947279       25.5470361403
  H         7.7144161611        5.7853094959       27.2942478990
  H         8.2956713474        6.5753405096       25.8644204767
  C         6.6098442708        3.4515753496       26.2295593925
  C         7.4383520140        4.1199089594       24.3591133794
  C         5.6995810345        5.7731897465       25.4000272909
  C         6.9647890454        2.3826166679       25.4792695625
  C         6.1922972357        3.1320243175       27.4877303478
  C         7.5147717292        2.7548339159       24.2578222415
  C         7.9861035562        4.8469385936       23.2811259739
  H         6.1014081491        6.5737552165       24.8012769773
  H         5.4655669820        6.1587243395       26.3644417413
  C         4.4886655438        5.1133887140       24.7204916289
  S         6.6112662917        0.8418536032       26.2603038618
  C         6.1537978580        1.7664993214       27.6879488012
  H         5.8926905493        3.9582010596       28.1271098312
  C         7.9179399369        2.1985213531       23.0903778419
  H         7.8845217880        5.8848170233       23.3624402500
  C         8.4287946862        4.2544111080       22.0971679917
  H         4.6187807791        4.7739208973       23.7152621509
  H         4.3936439929        4.1658328810       25.2594203323
  C         3.1938273821        5.9552721747       24.6309351829
  C         5.8808516547        1.1821556790       29.0192703533
  C         8.4411280929        2.9035265934       22.0046032017
  H         7.7873159920        1.1738845084       23.1054046351
  C         8.9290463334        4.6936748020       20.9336153550
  H         2.4544537600        5.5165658466       23.9937311882
  H         3.4659746473        6.7269820717       23.9881738074
  C         2.5205663428        6.2788543130       26.0287065174
  C         5.9482273678       -0.1977134323       29.4051929755
  C         5.3306260337        2.1133693007       30.1237538398
  C         8.8228066364        2.2056525600       20.7448606359
  C         9.0904913953        3.6167810814       20.0553603483
  S         9.3261052252        6.2318743521       20.2784882575
  H         1.7447972907        7.0159344154       25.9001992106
  H         3.3110895145        6.7012245836       26.6572778243
  C         1.8626719597        5.0472143810       26.7923088154
  N         6.2879970723       -1.2416612450       28.5206639809
  C         5.5615369516       -0.6507249097       30.6583436273
  C         5.0196692898        1.6160203218       31.3791947236
  H         5.3129782053        3.2434497320       30.0043410207
  C         7.6810955395        1.3932237195       20.1110362817
  C        10.0852419292        1.3448680849       20.8160473158
  C         9.5470898266        4.0654582991       18.8056207814
  C         9.6887756911        5.4316081646       18.7245806794
  H         0.9503716675        4.7568903400       26.2186387181
  H         2.6207104846        4.2819528448       26.9517262630
  C         1.4200735810        5.4577070386       28.1837024349
  S         6.3565677404       -2.6449090227       29.3647014608
  N         5.7717707908       -2.0325327016       30.8108533957
  C         5.2040388204        0.2088028308       31.7152790402
  H         4.6915384382        2.3529034348       32.1493470179
  H         7.0979615392        0.8059846363       20.7939326630
  H         8.0378607664        0.6946898672       19.3629507713
  C         6.5286945149        2.2840342271       19.4710365904
  H        10.1958687315        0.6079090961       20.0312496519
  H         9.8666222548        0.7292806212       21.6475555696
  C        11.3597520962        2.2428138226       21.0632220283
  H         9.6856229688        3.3382068236       18.0561176839
  C         9.9624837936        6.2441884674       17.4678418032
  H         0.7504585866        4.5823644207       28.4288452632
  H         0.9675355854        6.4270127585       28.1099113920
  C         2.5667841799        5.3763317764       29.2724300279
  C         5.1598605837       -0.3005246008       33.0345927385
  H         6.8370375857        2.8163777332       18.5482494483
  H         6.1856177543        2.9949558950       20.2359348297
  C         5.4215040684        1.2810775419       19.0230892456
  H        11.2266939922        2.8191387462       21.9750545059
  H        11.4717560983        2.8904955686       20.1523259119
  C        12.6938723597        1.5930457840       21.3162559943
  C         9.9642483901        7.5934838829       17.3067339603
  C        10.1594628227        5.5077149127       16.1929202233
  H         3.3180621861        4.6509699743       29.0789636621
  H         3.1207673576        6.3115263861       29.2696977623
  C         1.9719647490        5.3666380442       30.6936307481
  H         5.3758774832       -1.3268401295       33.0412858830
  C         4.7229583973        0.1904571482       34.2584046764
  H         4.9794435413        0.7554277649       19.8428924558
  H         5.9493652507        0.5695019361       18.3627272738
  C         4.2617074619        2.0102875098       18.3966092143
  H        12.8636173176        1.3880704121       22.3516531610
  H        12.7846011360        0.6283887672       20.7815478801
  C        13.9796183890        2.3596737161       20.9225984575
  N         9.6476526158        8.4681404846       18.3518351344
  C        10.2677109575        8.2415036634       16.1136298569
  C        10.5099304744        6.1649816916       15.0114510054
  H        10.0867901026        4.4819340948       16.0945732650
  H         1.3924991221        6.2883336838       30.7965001082
  H         1.2823959865        4.6037468234       31.0264941935
  H         2.7435753335        5.5119368451       31.4186835316
  S         4.2595031806        1.7339427800       34.5108005444
  C         4.6086173960       -0.7002805034       35.4188241508
  H         3.9874518651        2.9095476156       18.9357476132
  H         4.4772531968        2.2312481840       17.3757473471
  C         2.9834679223        1.1498021841       18.3946891915
  H        13.6999300470        3.3098977232       20.4523399139
  H        14.5486831800        1.8267220189       20.1767362074
  C        14.8488847731        2.6459194880       22.1891557881
  S         9.9280554452        9.9613036368       17.8373883453
  N        10.2056999408        9.6225077057       16.2414896845
  C        10.6193875255        7.6086737130       14.9080671816
  H        10.6927824363        5.5273517237       14.1405218251
  C         3.9992539322        1.3204534278       36.2151958552
  N         4.1622584386        0.0345365819       36.5074297084
  O         5.1087494421       -1.8294248339       35.4173021070
  H         2.1624134629        1.8716943446       18.2323461497
  H         2.7443142145        0.7867773210       19.3946981105
  C         2.8949433729       -0.0812063680       17.4026025461
  H        15.5362756566        3.4395532126       22.0388494512
  H        14.3089797690        3.0440765809       23.0675852057
  C        15.6374638561        1.4193741100       22.6357004579
  C        10.8884471011        8.3489967057       13.7062819543
  S         3.5289309944        2.4978001068       37.4596931885
  C         4.1738095345       -0.5098340454       37.8269367168
  H         2.6670564079        0.3167484801       16.4611708793
  H         3.8311428644       -0.6453470525       17.3194988518
  C         1.8246231160       -0.9978550318       17.8638744230
  H        15.5711123109        0.6682418771       21.8823376459
  H        15.1663993436        0.9523773396       23.4899878804
  C        17.1101524361        1.6053294186       23.0211823610
  H        10.8152895967        9.3852634660       13.6523346483
  C        11.4280750230        7.9712190125       12.4511527036
  H         3.7055672071        0.0275260833       38.6493066824
  H         3.7091836627       -1.5216979275       37.8613202391
  C         5.6255050628       -0.8529126007       38.1930809812
  H         0.9597167616       -0.3929411332       18.0222167889
  H         2.0112188403       -1.5478933517       18.7933020946
  C         1.6571430987       -2.0077189915       16.7095738830
  H        17.3405113953        2.5579052559       23.5019891123
  H        17.2738487959        0.8107948669       23.7362249153
  C        18.0958201269        1.5870776673       21.8616095015
  S        11.7975343692        6.3679543890       11.9162883913
  C        11.6787142137        9.0269324689       11.4850383957
  H         5.8923191754       -0.3999491437       39.1775143736
  H         5.7285671612       -1.8654392271       38.5431124596
  H         6.3244378398       -0.6021016555       37.4321272201
  H         1.5178819492       -1.4410492279       15.7460072100
  H         0.7487222777       -2.5132766352       17.0277495759
  H         2.5222789485       -2.7049075038       16.6286249124
  H        19.1094562908        1.2729183016       22.2465948889
  H        18.1795191007        2.5444939489       21.4184819631
  H        17.7939701477        1.0040586333       20.9738055934
  C        12.5415202540        7.1688669302       10.4971658772
  N        12.2981020265        8.5206404028       10.4047489696
  O        11.4700595192       10.1975447233       11.7432681826
  S        13.1569422358        6.3347849068        9.0912786531
  C        12.4569774301        9.3668564291        9.2004296145
  H        12.7157675711       10.3982433500        9.4793053489
  H        13.3245914600        8.9685292270        8.6511004676
  C        11.1596609471        9.4295820037        8.3427314094
  H        10.4466177582       10.0917426339        8.8151995005
  H        11.2811284682        9.7045998265        7.2712241404
  H        10.5713451736        8.5268248941        8.3458634602
  H        21.0025877398       11.8315782922        3.5427142005
  C        21.3181106484       10.7972668946        3.4524566758
  H        20.4344081490       10.1666893519        3.6045233331
  C        22.3364062208       10.6006822254        4.5312320645
  C        21.9669802415       10.6487231828        2.0438685604
  C        21.7147880094       10.6721261583        5.8669240751
  H        22.8154288063        9.6376656375        4.4380068259
  H        23.0743786755       11.3804482309        4.5248114889
  H        23.0006219489       11.0948362400        2.1037245127
  H        21.3660988717       11.2381432176        1.3517533561
  H        22.1316186628        9.6347131193        1.7252576431
  C        21.0347560688        9.3629696121        6.2649305288
  H        22.5152808279       11.0213410630        6.5111373862
  H        20.9363868072       11.4026439185        5.9054872375
  C        20.4702232581        9.3165944351        7.6928057039
  H        21.7766243984        8.5149512631        6.2579715153
  H        20.3766090031        8.9290704540        5.5359113652
  C        19.2096437052       10.2437259235        7.8334167495
  H        21.2303894151        9.6858630937        8.3775811748
  H        20.2963298018        8.3069659778        8.0713150351
  C        17.8603472870        9.6022825736        7.3850809201
  H        19.1629940156       10.7851406544        8.7672115146
  H        19.3256683858       11.0697863381        7.1018246793
  C        16.6695674767       10.4927970296        7.1371476890
  H        17.6262803907        8.8198596633        8.1472362733
  H        18.1971259128        9.1203257914        6.4147341913
  C        17.1259040664       11.8174407808        6.4802831826
  C        16.2223721443       11.2837168716        8.3282743566
  C        15.4797530901        9.7142877501        6.5479192504
  C        16.8288857073       12.9437100517        7.1788274570
  C        17.6531181739       12.2037987896        5.2670522144
  C        16.2797015888       12.5948437895        8.3837039367
  C        15.6991197310       10.5673688948        9.4218305287
  H        15.8634633364        9.3923818302        5.5334827603
  H        15.3772840325        8.7751201196        7.1276886059
  C        14.2216411344       10.6204900020        6.3150044691
  S        17.2039169915       14.4402802974        6.4593380934
  C        17.6566213598       13.5737378040        5.0524724132
  H        18.0743743164       11.4985074855        4.6440302373
  C        15.8857808667       13.2318688501        9.5326613196
  H        15.5676743032        9.5286808943        9.2478086864
  C        15.3002736091       11.1884934212       10.5301333347
  H        14.6111920126       11.5528046477        5.8947202171
  H        13.7035758562       10.9414678936        7.2970307645
  C        13.2993355396       10.0758950769        5.1891114264
  C        18.1523133140       14.2819470626        3.7881172194
  C        15.3302255685       12.5217747807       10.6237446577
  H        15.9788126335       14.3070500936        9.5437161578
  C        14.9490448842       10.8553716396       11.7986669470
  H        12.5361731584       10.7967190185        5.0662193239
  H        12.9184926187        9.1196490313        5.5619047706
  C        13.8851820565       10.0631276190        3.6863186527
  C        18.2522137589       15.6301681411        3.5006512227
  C        18.5118796089       13.3966571427        2.6401339428
  C        15.0003661043       13.2615908621       11.9008336899
  C        14.7258857960       11.9454558489       12.6247989789
  S        14.7782966074        9.3178299460       12.6678097703
  H        14.4541793613        9.1819858821        3.4869180553
  H        14.4539092204       10.9415105316        3.4601354606
  C        12.8795627591        9.9778766394        2.6479750848
  N        17.9958648330       16.6171980060        4.4247020964
  C        18.4865021581       16.1332659028        2.2065361348
  C        18.6853100563       13.9406904645        1.3598697365
  H        18.3932841888       12.3579806050        2.7464691346
  C        13.7133508054       14.0873126060       11.8320424049
  C        16.2448264234       14.0562156396       12.5170697917
  C        14.3344189908       11.5530315205       13.9508443222
  C        14.2916144877       10.1782417703       14.0914719624
  H        12.0426542176        9.2587334432        2.8122902704
  H        12.3731235022       10.8803954872        2.7109634970
  C        13.5135698176        9.9021621695        1.2538912055
  S        17.7020959709       18.0246518593        3.6243768998
  N        18.2364731369       17.5322110704        2.1775551675
  C        18.5764063522       15.3680836652        1.0418051484
  H        18.9335259689       13.3207846121        0.5556466008
  H        13.8602553149       14.9557249122       11.1817479697
  H        13.3982992868       14.5114313932       12.7833703715
  C        12.4899216481       13.4008852838       11.2283791929
  H        16.6928451720       14.7403425457       11.7820635109
  H        15.9375815747       14.6852124557       13.3409067650
  C        17.3416868757       13.1468856934       13.0251438046
  H        14.0071743397       12.3058211800       14.6234092830
  C        13.9396657634        9.4095696488       15.3489964770
  H        14.4642398399        9.3759568705        1.1958224032
  H        13.7151502658       10.8606622394        0.7582334345
  C        12.4774349901        9.1919105673        0.3716792978
  C        18.7543400414       15.8943982432       -0.2340333550
  H        12.7894391077       13.0275379485       10.2261795507
  H        12.2598181999       12.4554855481       11.7055570987
  C        11.2446803943       14.2427095326       11.2394064200
  H        17.8503526310       12.5300452254       12.2717294891
  H        17.0041728899       12.3821105481       13.7383784146
  C        18.3013856179       14.0574509198       13.7502247376
  C        13.9385242895        7.9831288257       15.5046898495
  C        13.8306635279       10.2133439700       16.6230405604
  H        12.6357300787        8.1478228055        0.3569568747
  H        11.4858554283        9.5020165558        0.7641856762
  C        12.7245374149        9.7259520493       -1.0601955436
  H        18.5163184773       16.9321142443       -0.1670476998
  C        18.9986452354       15.3751648079       -1.4792598438
  H        11.3687659830       15.1596103202       10.7200616843
  H        11.0643607188       14.4574966629       12.3563185482
  C        10.0383988992       13.4751052880       10.8121230016
  H        18.2586209617       15.0099499743       13.1952402057
  H        17.9581082219       14.2876022561       14.7540102337
  C        19.6970069397       13.4695216558       13.7914788009
  N        14.1771254874        7.0345783398       14.5102312126
  C        13.5836887738        7.3889040572       16.7138696722
  C        13.5138193618        9.5226089871       17.7925412535
  H        14.0217470164       11.3099973304       16.6210320192
  H        11.9290182465        9.4277349666       -1.7270937816
  H        13.6730599004        9.4010711845       -1.3790781205
  H        12.8170497568       10.7690338825       -1.2044566227
  S        19.4306923689       13.7778555368       -1.9574817356
  C        18.9025569928       16.3243888731       -2.5598131433
  H        10.1832625152       12.5430972924       10.2850439294
  H         9.4860717887       13.0765504261       11.6386887422
  C         9.1516467741       14.3974626332       10.0107057733
  H        20.1206406847       13.3018384701       12.7729791798
  H        19.7563063361       12.5080088855       14.2047776559
  C        20.5684584602       14.5662004072       14.4114906694
  S        14.0067321128        5.5057068839       15.0930932500
  N        13.6200324628        5.9751648958       16.6167266895
  C        13.2564103393        8.0838403618       17.8801756360
  H        13.3147722286       10.1533965234       18.7232556690
  C        19.6557500179       14.4724439512       -3.5387866913
  N        19.3586048443       15.7754498112       -3.6740442185
  O        18.5240753080       17.4826184449       -2.4275008507
  H         8.6407459240       15.1774684703       10.6776091751
  H         9.7900236865       14.9839206034        9.2729608978
  C         8.1791641852       13.6018526942        9.2380501948
  H        19.9603645044       14.9797751417       15.2176095949
  H        21.5258465138       14.1943686845       14.8343387364
  C        20.8528952753       15.7656070030       13.4388921027
  C        12.8931179806        7.3870090220       19.0382870723
  S        20.0072794607       13.5041344234       -4.9830091121
  C        19.4027837143       16.5767089285       -4.9224675358
  H         7.7092695153       14.3378388849        8.5526667792
  H         8.6719177107       12.8120210524        8.6588656619
  C         7.1096026479       12.9434916811       10.1311349645
  H        20.1410590073       16.5910090777       13.6411184955
  H        20.7840791485       15.4983879740       12.4198627710
  C        22.1693773775       16.4237350017       13.8603327335
  H        12.9482030008        6.3367888844       19.0146914986
  C        12.4341778757        7.7687830130       20.2822499829
  H        20.2011197321       16.1615342437       -5.5150084466
  H        19.6940998820       17.5797217565       -4.7931949464
  C        18.1271210574       16.5994354513       -5.7013718637
  H         7.4938187156       13.0433912561       11.1298482046
  H         6.9779412867       11.8649438712       10.0343805167
  C         5.8460889843       13.6826793320       10.0140390659
  H        22.9123520755       15.6366506648       14.0154485279
  H        22.4962451348       16.9889409517       13.0431315065
  C        21.9006728304       17.3803055939       15.0329503007
  S        11.9358348102        9.3679504279       20.6934996241
  C        12.3109113619        6.7970879359       21.3912550236
  H        17.2438382135       16.2757051315       -5.1551022354
  H        18.3878994556       15.8542699009       -6.4591498315
  H        17.9214596459       17.4671442910       -6.2954813495
  H         5.4263215040       13.9045146591        9.0173261642
  H         5.0464387759       13.1028626122       10.5037537353
  H         5.8794408573       14.5836214340       10.5696898530
  H        21.6801907619       18.3863700968       14.7643616418
  H        21.0579549890       17.0333833153       15.6589067706
  H        22.7129585106       17.4305627817       15.7550308869
  C        11.5075939589        8.6702841121       22.2938029522
  N        11.7096140371        7.3464587584       22.4367285322
  O        12.7349793230        5.6417211486       21.3104916071
  S        10.7573224123        9.5187895398       23.6823108126
  C        11.4387079444        6.6270005894       23.6294929225
  H        11.4327182063        5.5718437512       23.4476033515
  H        10.3759974777        6.8177676374       23.9599522379
  C        12.5685699266        6.9434510687       24.6355005448
  H        12.7664904672        6.0721340785       25.2849536528
  H        12.1908310375        7.7460442981       25.3623010400
  H        13.5225581309        7.2738974981       24.2410782715
